 Gaussian 16, Revision C.01,
 Gaussian 16:  ES64L-G16RevC.01  3-Jul-2019

 ----------------------------------------------------------
 #p pbepbe/def2tzvp/w06 opt scrf(cpcm,solvent=generic,read)
 ----------------------------------------------------------

 ---
 bf4
 ---
 Symbolic Z-matrix:
 Charge = -1 Multiplicity = 1

 SCF Done:  E(RPBE-PBE) =  -424.398254633     A.U. after    9 cycles
 SCF Done:  E(RPBE-PBE) =  -424.401463985     A.U. after    8 cycles
 SCF Done:  E(RPBE-PBE) =  -424.401508426     A.U. after    7 cycles
 Optimization completed.
    -- Stationary point found.

                         Standard orientation:
 ---------------------------------------------------------------------
 Center     Atomic      Atomic             Coordinates (Angstroms)
 Number     Number       Type             X           Y           Z
 ---------------------------------------------------------------------
      1          5           0       -0.000001   -0.000015   -0.000085
      2          9           0       -0.925264   -1.013398   -0.359226
      3          9           0        0.603028   -0.328655    1.241036
      4          9           0       -0.679002    1.239819    0.117783
      5          9           0        1.001239    0.102241   -0.999546
 ---------------------------------------------------------------------

 The electronic state is 1-A.
 Alpha  occ. eigenvalues --  -24.19522 -24.19519 -24.19517 -24.19514  -6.58165
 Alpha  occ. eigenvalues --   -1.07436  -1.02326  -1.02322  -1.02319  -0.47301
 Alpha  occ. eigenvalues --   -0.41764  -0.41762  -0.41761  -0.33361  -0.33360
 Alpha  occ. eigenvalues --   -0.31708  -0.31707  -0.31706  -0.28301  -0.28299
 Alpha  occ. eigenvalues --   -0.28297
 Alpha virt. eigenvalues --    0.04147   0.10089   0.10093   0.10094   0.28721
 Alpha virt. eigenvalues --    0.28723   0.28731   0.30782   0.40388   0.40390
 Alpha virt. eigenvalues --    0.40392   0.50138   0.50141   0.56674   0.65073

 Mulliken charges:
               1
     1  B    0.575991
     2  F   -0.393989
     3  F   -0.394023
     4  F   -0.394042
     5  F   -0.393937
 Sum of Mulliken charges =  -1.00000

 Dipole moment (field-independent basis, Debye):
    X=             -0.0002    Y=              0.0003    Z=             -0.0005  Tot=              0.0006
 Quadrupole moment (field-independent basis, Debye-Ang):
   XX=            -31.6172   YY=            -31.6169   ZZ=            -31.6163
   XY=              0.0003   XZ=             -0.0003   YZ=             -0.0002

 Normal termination of Gaussian 16 at Tue Mar 10 15:38:34 2020.
