 Gaussian 16, Revision C.01,
 Gaussian 16:  ES64L-G16RevC.01  3-Jul-2019

 ----------------------------------------------------------
 #p pbepbe/def2tzvp/w06 opt scrf(cpcm,solvent=generic,read)
 ----------------------------------------------------------

 ---
 no3
 ---
 Symbolic Z-matrix:
 Charge = -1 Multiplicity = 1

 SCF Done:  E(RPBE-PBE) =  -280.322142683     A.U. after    9 cycles
 SCF Done:  E(RPBE-PBE) =  -280.324233110     A.U. after    8 cycles
 SCF Done:  E(RPBE-PBE) =  -280.324300248     A.U. after    8 cycles
 Optimization completed.
    -- Stationary point found.

                         Standard orientation:
 ---------------------------------------------------------------------
 Center     Atomic      Atomic             Coordinates (Angstroms)
 Number     Number       Type             X           Y           Z
 ---------------------------------------------------------------------
      1          7           0       -0.000000   -0.000000   -0.000086
      2          8           0        0.000000    1.096842   -0.633092
      3          8           0       -0.000000   -1.096842   -0.633092
      4          8           0        0.000000    0.000000    1.266260
 ---------------------------------------------------------------------

 The electronic state is 1-A1.
 Alpha  occ. eigenvalues --  -18.72464 -18.72464 -18.72463 -14.19318  -1.10346
 Alpha  occ. eigenvalues --   -0.90012  -0.90008  -0.51227  -0.45240  -0.42882
 Alpha  occ. eigenvalues --   -0.42881  -0.24374  -0.24369  -0.23268  -0.23267
 Alpha  occ. eigenvalues --   -0.17262
 Alpha virt. eigenvalues --   -0.04145   0.11609   0.24197   0.24200   0.24470
 Alpha virt. eigenvalues --    0.32262   0.34536   0.34538   0.41602   0.45868
 Alpha virt. eigenvalues --    0.45868   0.45878   0.45882   0.52634   0.52634

 Mulliken charges:
               1
     1  N    0.352534
     2  O   -0.450781
     3  O   -0.450781
     4  O   -0.450972
 Sum of Mulliken charges =  -1.00000

 Dipole moment (field-independent basis, Debye):
    X=              0.0000    Y=             -0.0000    Z=             -0.0011  Tot=              0.0011
 Quadrupole moment (field-independent basis, Debye-Ang):
   XX=            -22.2908   YY=            -29.8880   ZZ=            -29.8878
   XY=             -0.0000   XZ=             -0.0000   YZ=              0.0000

 Normal termination of Gaussian 16 at Tue Mar 10 15:41:31 2020.
