 Gaussian 16, Revision C.01,
 Gaussian 16:  ES64L-G16RevC.01  3-Jul-2019

 ---
 #G2
 ---
 1/18=20,19=15,38=1/1,3;
 2/9=110,12=2,17=6,18=5,40=1/2;
 3/5=1,6=6,7=1,11=9,25=1,30=1,71=1/1,2,3;
 4//1;
 5/5=2,38=5/2;

 ----------
 oxygen.xyz
 ----------
 Symbolic Z-matrix:
 Charge =  0 Multiplicity = 3

 SCF Done:  E(UHF) =  -74.7839336096     A.U. after    9 cycles
 SCF Done:  E(UHF) =  -74.7839336096     A.U. after    1 cycles
 Optimization completed.
    -- Stationary point found.
 Normal termination of Gaussian 16 at Tue Feb 25 16:09:57 2020.

 --------------------------------------------------------------
 #N Geom=AllCheck Guess=TCheck SCRF=Check Test HF/6-31G(d) Freq
 --------------------------------------------------------------

 Structure from the checkpoint file:  "oxygen.chk"
 ----------
 oxygen.xyz
 ----------
 Charge =  0 Multiplicity = 3

 SCF Done:  E(UHF) =  -74.7839336096     A.U. after    1 cycles

  Exact polarizability:       2.593       0.000       2.003       0.000       0.000       2.593
 Approx polarizability:       2.059      -0.000       1.616      -0.000      -0.000       2.059

 - Thermochemistry -
 -------------------
 Temperature   298.150 Kelvin.  Pressure   1.00000 Atm.
 Atom     1 has atomic number  8 and mass  15.99491
 Molecular mass:    15.99491 amu.
 Zero-point vibrational energy          0.0 (Joules/Mol)
                                    0.00000 (Kcal/Mol)
 Vibrational temperatures:
          (Kelvin)

 Zero-point correction=                           0.000000 (Hartree/Particle)
 Thermal correction to Energy=                    0.001416
 Thermal correction to Enthalpy=                  0.002360
 Thermal correction to Gibbs Free Energy=        -0.014952
 Sum of electronic and zero-point Energies=            -74.783934
 Sum of electronic and thermal Energies=               -74.782517
 Sum of electronic and thermal Enthalpies=             -74.781573
 Sum of electronic and thermal Free Energies=          -74.798886

                     E (Thermal)             CV                S
                      KCal/Mol        Cal/Mol-Kelvin    Cal/Mol-Kelvin
 Total                    0.889              2.981             36.438
 Electronic               0.000              0.000              2.183
 Translational            0.889              2.981             34.254
 Rotational               0.000              0.000              0.000
 Vibrational              0.000              0.000              0.000

 Optimization completed.
    -- Stationary point found.
 Normal termination of Gaussian 16 at Tue Feb 25 16:09:59 2020.

 ----------------------------------------------------------------------
 #N Geom=AllCheck Guess=TCheck SCRF=Check Test MP2(Full)/6-31G(d) Opt=R
 CFC
 ----------------------------------------------------------------------

 Structure from the checkpoint file:  "oxygen.chk"
 ----------
 oxygen.xyz
 ----------
 Charge =  0 Multiplicity = 3

 SCF Done:  E(UHF) =  -74.7839336096     A.U. after    1 cycles
 E2 =    -0.9806275315D-01 EUMP2 =    -0.74881996362791D+02
 SCF Done:  E(UHF) =  -74.7839336096     A.U. after    1 cycles
 E2 =    -0.9806275315D-01 EUMP2 =    -0.74881996362791D+02
 Optimization completed.
    -- Stationary point found.
 Normal termination of Gaussian 16 at Tue Feb 25 16:10:04 2020.

 ----------------------------------------------------------------------
 #N Geom=AllCheck Guess=TCheck SCRF=Check Test QCISD(T,E4T)/6-311G(d,p)
 ----------------------------------------------------------------------

 Structure from the checkpoint file:  "oxygen.chk"
 ----------
 oxygen.xyz
 ----------
 Charge =  0 Multiplicity = 3

 SCF Done:  E(UHF) =  -74.8052114252     A.U. after    9 cycles
 E2 =    -0.1129340247D+00 EUMP2 =    -0.74918145449913D+02
 Normal termination of Gaussian 16 at Tue Feb 25 16:10:05 2020.

 --------------------------------------------------------------
 #N Geom=AllCheck Guess=TCheck SCRF=Check Test MP4/6-311+G(d,p)
 --------------------------------------------------------------

 Structure from the checkpoint file:  "oxygen.chk"
 ----------
 oxygen.xyz
 ----------
 Charge =  0 Multiplicity = 3

 SCF Done:  E(UHF) =  -74.8073964413     A.U. after   10 cycles
 E2 =    -0.1143848109D+00 EUMP2 =    -0.74921781252131D+02
 Normal termination of Gaussian 16 at Tue Feb 25 16:10:07 2020.

 ---------------------------------------------------------------
 #N Geom=AllCheck Guess=TCheck SCRF=Check Test MP4/6-311G(2df,p)
 ---------------------------------------------------------------

 Structure from the checkpoint file:  "oxygen.chk"
 ----------
 oxygen.xyz
 ----------
 Charge =  0 Multiplicity = 3

 SCF Done:  E(UHF) =  -74.8070718271     A.U. after    9 cycles
 E2 =    -0.1394525063D+00 EUMP2 =    -0.74946524333384D+02
 Normal termination of Gaussian 16 at Tue Feb 25 16:10:09 2020.

                         Standard orientation:
 ---------------------------------------------------------------------
 Center     Atomic      Atomic             Coordinates (Angstroms)
 Number     Number       Type             X           Y           Z
 ---------------------------------------------------------------------
      1          8           0        0.000000    0.000000    0.000000
 ---------------------------------------------------------------------

 SCF Done:  E(UHF) =  -74.8093403748     A.U. after   10 cycles
 E2 =    -0.1430809331D+00 EUMP2 =    -0.74952421307873D+02

 Unable to determine electronic state:  an orbital has unidentified symmetry.
 Alpha  occ. eigenvalues --  -20.71117  -1.41945  -0.71179  -0.71179  -0.61268
 Alpha virt. eigenvalues --    0.18077   0.21840   0.21840   0.23277   0.89450
 Alpha virt. eigenvalues --    0.89450   0.92329   0.92329   0.93294   1.14208
 Alpha virt. eigenvalues --    1.14208   1.19375   1.40052   3.55349   3.55349

  Beta  occ. eigenvalues --  -20.63105  -1.07694  -0.52226
  Beta virt. eigenvalues --    0.07340   0.07340   0.19714   0.23986   0.30370
  Beta virt. eigenvalues --    0.30370   0.95842   0.96079   0.96079   0.97083
  Beta virt. eigenvalues --    0.97083   1.22805   1.30633   1.30633   1.48882

 Mulliken charges and spin densities:
               1          2
     1  O   -0.000000   2.000000
 Sum of Mulliken charges =  -0.00000   2.00000

 Dipole moment (field-independent basis, Debye):
    X=              0.0000    Y=              0.0000    Z=              0.0000  Tot=              0.0000
 Quadrupole moment (field-independent basis, Debye-Ang):
   XX=             -4.6069   YY=             -5.9233   ZZ=             -4.6069
   XY=              0.0000   XZ=             -0.0000   YZ=             -0.0000

 Normal termination of Gaussian 16 at Tue Feb 25 16:10:11 2020.
