 Gaussian 16, Revision C.01,
 Gaussian 16:  ES64L-G16RevC.01  3-Jul-2019

 ------------------------------------------------------------------
 #wb97xd/def2svp/w06 opt(tight) freq temperature=298.2 scale=0.9788
 ------------------------------------------------------------------

 --------------
 c1c2im_no3.jgf
 --------------
 Symbolic Z-matrix:
 Charge =  0 Multiplicity = 1

 SCF Done:  E(RwB97XD) =  -624.385421631     A.U. after   16 cycles
 SCF Done:  E(RwB97XD) =  -624.389408655     A.U. after   14 cycles
 SCF Done:  E(RwB97XD) =  -624.389912286     A.U. after   13 cycles
 SCF Done:  E(RwB97XD) =  -624.390101249     A.U. after   12 cycles
 SCF Done:  E(RwB97XD) =  -624.390205380     A.U. after   13 cycles
 SCF Done:  E(RwB97XD) =  -624.390371842     A.U. after   13 cycles
 SCF Done:  E(RwB97XD) =  -624.390475849     A.U. after   13 cycles
 SCF Done:  E(RwB97XD) =  -624.390535144     A.U. after   13 cycles
 SCF Done:  E(RwB97XD) =  -624.390622405     A.U. after   13 cycles
 SCF Done:  E(RwB97XD) =  -624.390691027     A.U. after   12 cycles
 SCF Done:  E(RwB97XD) =  -624.391728831     A.U. after    6 cycles
 SCF Done:  E(RwB97XD) =  -624.391728832     A.U. after    6 cycles
 SCF Done:  E(RwB97XD) =  -624.391728831     A.U. after    7 cycles
 SCF Done:  E(RwB97XD) =  -624.391728831     A.U. after    7 cycles
 SCF Done:  E(RwB97XD) =  -624.391728833     A.U. after    7 cycles
 SCF Done:  E(RwB97XD) =  -624.391728835     A.U. after    6 cycles
 SCF Done:  E(RwB97XD) =  -624.391728836     A.U. after    5 cycles
 SCF Done:  E(RwB97XD) =  -624.391728840     A.U. after    7 cycles
 SCF Done:  E(RwB97XD) =  -624.391728836     A.U. after    7 cycles
 Optimization completed.
    -- Stationary point found.
 Normal termination of Gaussian 16 at Fri Mar  6 15:52:01 2020.

 ----------------------------------------------------------------------
 #N Geom=AllCheck Guess=TCheck SCRF=Check Test GenChk RwB97XD/def2SVP/W
 06 Freq
 ----------------------------------------------------------------------

 Structure from the checkpoint file:  "c1c2im_no3.jgf"
 --------------
 c1c2im_no3.jgf
 --------------
 Charge =  0 Multiplicity = 1

                         Standard orientation:
 ---------------------------------------------------------------------
 Center     Atomic      Atomic             Coordinates (Angstroms)
 Number     Number       Type             X           Y           Z
 ---------------------------------------------------------------------
      1          6           0       -2.753694    0.721963   -0.298070
      2          6           0       -2.467154   -0.770731   -0.322432
      3          7           0       -1.084379   -1.074924    0.053822
      4          6           0       -0.570485   -1.095898    1.334120
      5          6           0        0.774908   -1.248783    1.220505
      6          7           0        1.063542   -1.319316   -0.125336
      7          6           0       -0.071598   -1.179143   -0.800966
      8          6           0        2.391495   -1.214703   -0.716435
      9          7           0        0.714638    1.676210    0.009520
     10          8           0        0.421478    1.353435   -1.171259
     11          8           0        1.882197    1.519480    0.408690
     12          8           0       -0.153572    2.115653    0.765519
     13          1           0       -2.002516    1.262500   -0.891355
     14          1           0       -2.689324    1.122587    0.722022
     15          1           0       -3.763480    0.903268   -0.693403
     16          1           0       -2.616991   -1.189574   -1.327751
     17          1           0       -3.119464   -1.333961    0.361026
     18          1           0       -1.200026   -0.975644    2.209537
     19          1           0        1.553713   -1.267148    1.975355
     20          1           0       -0.154278   -1.121520   -1.881471
     21          1           0        2.656625   -0.145207   -0.708908
     22          1           0        2.360938   -1.611132   -1.737813
     23          1           0        3.096536   -1.802734   -0.117203
 ---------------------------------------------------------------------

 SCF Done:  E(RwB97XD) =  -624.391728836     A.U. after    1 cycles

 The electronic state is 1-A.
 Alpha  occ. eigenvalues --  -19.19235 -19.19218 -19.19120 -14.63483 -14.55857
 Alpha  occ. eigenvalues --  -14.55801 -10.42472 -10.37625 -10.37369 -10.37287
 Alpha  occ. eigenvalues --  -10.35751 -10.29507  -1.27545  -1.19652  -1.07531
 Alpha  occ. eigenvalues --   -1.05434  -1.04575  -0.92469  -0.89103  -0.83954
 Alpha  occ. eigenvalues --   -0.77196  -0.74600  -0.72313  -0.66563  -0.62839
 Alpha  occ. eigenvalues --   -0.60950  -0.59422  -0.58638  -0.57597  -0.56819
 Alpha  occ. eigenvalues --   -0.56263  -0.54776  -0.53940  -0.53399  -0.53092
 Alpha  occ. eigenvalues --   -0.51171  -0.48931  -0.47196  -0.44543  -0.40684
 Alpha  occ. eigenvalues --   -0.37579  -0.34134  -0.33542  -0.31511  -0.30949
 Alpha  occ. eigenvalues --   -0.26639
 Alpha virt. eigenvalues --    0.03716   0.06871   0.11153   0.12289   0.13311
 Alpha virt. eigenvalues --    0.14129   0.15676   0.16676   0.18858   0.19745
 Alpha virt. eigenvalues --    0.20031   0.20595   0.22162   0.23075   0.25684

 Mulliken charges:
               1
     1  C   -0.057718
     2  C    0.033489
     3  N   -0.229887
     4  C    0.066461
     5  C    0.087233
     6  N   -0.236606
     7  C    0.248700
     8  C    0.065939
     9  N    0.369707
    10  O   -0.408543
    11  O   -0.379688
    12  O   -0.358630
    13  H    0.082305
    14  H    0.065869
    15  H    0.044970
    16  H    0.054174
    17  H    0.058688
    18  H    0.074760
    19  H    0.079727
    20  H    0.099866
    21  H    0.122212
    22  H    0.056815
    23  H    0.060157
 Sum of Mulliken charges =  -0.00000

 Dipole moment (field-independent basis, Debye):
    X=             -2.5774    Y=             -9.1124    Z=             -0.5426  Tot=              9.4854
 Quadrupole moment (field-independent basis, Debye-Ang):
   XX=            -61.0955   YY=            -78.1317   ZZ=            -65.7454
   XY=             -5.6342   XZ=             -0.8722   YZ=             -0.5887

  Exact polarizability:     110.801      -8.020      69.814       0.040       2.926      85.279
 Approx polarizability:     123.238      -7.756      76.126      -0.186       5.942     110.408

                      1                      2                      3
                      A                      A                      A
 Frequencies --     33.4208                61.5330                78.1517
 Red. masses --      4.2644                 3.9123                 4.3041
 Frc consts  --      0.0028                 0.0087                 0.0155
 IR Inten    --      1.5683                 1.6661                 2.8267

                      4                      5                      6
                      A                      A                      A
 Frequencies --     90.6704               102.1482               149.6251
 Red. masses --      5.1204                 8.4384                 6.0758
 Frc consts  --      0.0248                 0.0519                 0.0801
 IR Inten    --      3.4327                 9.2991                 4.3591

                      7                      8                      9
                      A                      A                      A
 Frequencies --    170.5495               187.3430               205.4596
 Red. masses --      1.1509                 3.5999                 5.7332
 Frc consts  --      0.0197                 0.0744                 0.1426
 IR Inten    --      1.6521                 1.4090                31.4156

                     10                     11                     12
                      A                      A                      A
 Frequencies --    221.0962               282.3257               300.3177
 Red. masses --      1.2472                 3.0508                 1.9592
 Frc consts  --      0.0359                 0.1433                 0.1041
 IR Inten    --      1.5791                 9.1665                 1.0864

                     13                     14                     15
                      A                      A                      A
 Frequencies --    412.4180               428.6505               620.2493
 Red. masses --      3.2184                 2.4673                 3.4803
 Frc consts  --      0.3225                 0.2671                 0.7889
 IR Inten    --      1.2001                 0.3231                 1.9666

                     16                     17                     18
                      A                      A                      A
 Frequencies --    648.0521               670.9372               731.1707
 Red. masses --      2.8859                 2.7098                 2.7914
 Frc consts  --      0.7141                 0.7187                 0.8792
 IR Inten    --     36.7702                26.2504                 9.5150

                     19                     20                     21
                      A                      A                      A
 Frequencies --    736.8541               750.2820               756.9571
 Red. masses --      1.4334                15.3463                15.4738
 Frc consts  --      0.4585                 5.0898                 5.2238
 IR Inten    --     23.3342                 1.9151                 1.7963

                     22                     23                     24
                      A                      A                      A
 Frequencies --    810.7875               844.4666               879.0834
 Red. masses --      1.1565                 1.4861                 1.4925
 Frc consts  --      0.4479                 0.6244                 0.6795
 IR Inten    --      1.9109                 3.3406                 1.6034

                     25                     26                     27
                      A                      A                      A
 Frequencies --    885.1098               979.2441              1055.3481
 Red. masses --     11.8328                 2.1317                 2.5605
 Frc consts  --      5.4618                 1.2043                 1.6802
 IR Inten    --     29.9719                 4.7962                 1.6869

                     28                     29                     30
                      A                      A                      A
 Frequencies --   1064.7881              1112.5333              1124.1258
 Red. masses --      2.5500                 1.2462                 1.9467
 Frc consts  --      1.7034                 0.9088                 1.4494
 IR Inten    --      3.1993                 7.0561                 9.3452

                     31                     32                     33
                      A                      A                      A
 Frequencies --   1127.6802              1139.6092              1148.9298
 Red. masses --      1.5237                 1.6261                 8.8163
 Frc consts  --      1.1416                 1.2442                 6.8568
 IR Inten    --      4.0571                 2.1504                 5.4444

                     34                     35                     36
                      A                      A                      A
 Frequencies --   1155.9778              1208.6321              1267.6723
 Red. masses --      1.4379                 1.8141                 1.2877
 Frc consts  --      1.1321                 1.5614                 1.2192
 IR Inten    --      5.0106                85.9398                 0.5503

                     37                     38                     39
                      A                      A                      A
 Frequencies --   1314.2200              1380.1837              1404.3145
 Red. masses --      1.2914                 1.2989                 3.1382
 Frc consts  --      1.3142                 1.4578                 3.6464
 IR Inten    --      0.2173                 5.3006                44.7775

                     40                     41                     42
                      A                      A                      A
 Frequencies --   1423.9553              1432.9828              1453.1791
 Red. masses --      1.5060                 1.2991                 1.8553
 Frc consts  --      1.7992                 1.5717                 2.3084
 IR Inten    --     16.3682                21.1515                17.0400

                     43                     44                     45
                      A                      A                      A
 Frequencies --   1465.5091              1466.1164              1469.3627
 Red. masses --      1.3310                 1.1654                 1.0605
 Frc consts  --      1.6842                 1.4760                 1.3490
 IR Inten    --     31.3412                59.4846                18.2703

                     46                     47                     48
                      A                      A                      A
 Frequencies --   1487.5268              1495.3348              1505.4646
 Red. masses --      1.4645                 1.4058                 4.5124
 Frc consts  --      1.9093                 1.8520                 6.0256
 IR Inten    --     20.2158                47.2036               115.8619

                     49                     50                     51
                      A                      A                      A
 Frequencies --   1525.4808              1595.5042              1649.6171
 Red. masses --      1.8744                 9.6218                 4.9414
 Frc consts  --      2.5699                14.4312                 7.9226
 IR Inten    --     98.5895               329.5700                22.0491

                     52                     53                     54
                      A                      A                      A
 Frequencies --   1667.4030              3059.3416              3068.1536
 Red. masses --      5.1488                 1.0358                 1.0372
 Frc consts  --      8.4340                 5.7119                 5.7529
 IR Inten    --    108.3681                63.4645                23.1970

                     55                     56                     57
                      A                      A                      A
 Frequencies --   3091.8737              3150.8557              3180.7311
 Red. masses --      1.0623                 1.1083                 1.1060
 Frc consts  --      5.9835                 6.4829                 6.5928
 IR Inten    --     25.6156                 7.5344                 4.9325

                     58                     59                     60
                      A                      A                      A
 Frequencies --   3183.7427              3187.6675              3208.7257
 Red. masses --      1.1052                 1.1051                 1.1086
 Frc consts  --      6.6005                 6.6159                 6.7252
 IR Inten    --     17.3027                 8.2911                 3.5084

                     61                     62                     63
                      A                      A                      A
 Frequencies --   3313.7623              3328.4769              3333.9009
 Red. masses --      1.0940                 1.1037                 1.1132
 Frc consts  --      7.0780                 7.2043                 7.2901
 IR Inten    --     11.1826                27.3325                 1.4465

 - Thermochemistry -
 -------------------
 Temperature   298.200 Kelvin.  Pressure   1.00000 Atm.
 Thermochemistry will use frequencies scaled by 0.9788.

 Molecular mass:   173.08004 amu.
 Principal axes and moments of inertia in atomic units:
                           1         2         3
     Eigenvalues --  1510.565341865.316452595.04578
           X            0.99287  -0.11917  -0.00268
           Y            0.11918   0.99286   0.00400
           Z            0.00218  -0.00429   0.99999
 This molecule is an asymmetric top.
 Rotational symmetry number  1.
 Warning -- assumption of classical behavior for rotation
           may cause significant error
 Rotational temperatures (Kelvin)      0.05734     0.04643     0.03338
 Rotational constants (GHZ):           1.19475     0.96753     0.69546
 Zero-point vibrational energy     481743.0 (Joules/Mol)
                                  115.13933 (Kcal/Mol)
 Warning -- explicit consideration of  15 degrees of freedom as
           vibrations may cause significant error
 Vibrational temperatures:     47.07    86.66   110.06   127.69   143.85
          (Kelvin)            210.71   240.18   263.83   289.34   311.36
                              397.59   422.93   580.80   603.66   873.48
                              912.64   944.86  1029.69  1037.69  1056.60
                             1066.00  1141.81  1189.24  1237.99  1246.48
                             1379.04  1486.22  1499.51  1566.75  1583.08
                             1588.08  1604.88  1618.01  1627.93  1702.09
                             1785.23  1850.78  1943.68  1977.66  2005.32
                             2018.03  2046.48  2063.84  2064.69  2069.27
                             2094.85  2105.84  2120.11  2148.30  2246.91
                             2323.11  2348.16  4308.39  4320.80  4354.21
                             4437.27  4479.34  4483.58  4489.11  4518.77
                             4666.69  4687.41  4695.05

 Zero-point correction=                           0.183486 (Hartree/Particle)
 Thermal correction to Energy=                    0.196197
 Thermal correction to Enthalpy=                  0.197141
 Thermal correction to Gibbs Free Energy=         0.143265
 Sum of electronic and zero-point Energies=           -624.208243
 Sum of electronic and thermal Energies=              -624.195532
 Sum of electronic and thermal Enthalpies=            -624.194588
 Sum of electronic and thermal Free Energies=         -624.248464

                     E (Thermal)             CV                S
                      KCal/Mol        Cal/Mol-Kelvin    Cal/Mol-Kelvin
 Total                  123.115             44.364            113.373
 Electronic               0.000              0.000              0.000
 Translational            0.889              2.981             41.354
 Rotational               0.889              2.981             30.371
 Vibrational            121.338             38.403             41.648
 Vibration     1          0.594              1.983              5.658
 Vibration     2          0.597              1.973              4.450
 Vibration     3          0.599              1.965              3.979
 Vibration     4          0.602              1.957              3.688
 Vibration     5          0.604              1.949              3.455
 Vibration     6          0.617              1.907              2.718
 Vibration     7          0.624              1.883              2.470
 Vibration     8          0.631              1.862              2.294
 Vibration     9          0.638              1.838              2.123
 Vibration    10          0.645              1.816              1.989
 Vibration    11          0.678              1.717              1.557
 Vibration    12          0.689              1.685              1.451
 Vibration    13          0.769              1.462              0.949
 Vibration    14          0.782              1.428              0.894
 Vibration    15          0.966              1.017              0.438

                           ! Non-Optimized Parameters !
 Normal termination of Gaussian 16 at Fri Mar  6 15:54:39 2020.
