 Gaussian 16, Revision C.01,
 Gaussian 16:  ES64L-G16RevC.01  3-Jul-2019

 --------
 #CBS-QB3
 --------

 -
 n
 -
 Symbolic Z-matrix:
 Charge =  0 Multiplicity = 4

 SCF Done:  E(UB3LYP) =  -54.5985431449     A.U. after    8 cycles
 Optimization completed.
    -- Stationary point found.
 Normal termination of Gaussian 16 at Tue Mar  3 14:51:18 2020.

 --------------------------------------------------------------
 #N Geom=AllCheck Guess=TCheck SCRF=Check Test B3LYP/CBSB7 Freq
 --------------------------------------------------------------

 Structure from the checkpoint file:  "n.chk"
 -
 n
 -
 Charge =  0 Multiplicity = 4

 SCF Done:  E(UB3LYP) =  -54.5985431449     A.U. after    1 cycles

  Exact polarizability:       3.908      -0.000       3.908       0.000       0.000       3.908
 Approx polarizability:       4.193      -0.000       4.193      -0.000      -0.000       4.193

 - Thermochemistry -
 -------------------
 Temperature   298.150 Kelvin.  Pressure   1.00000 Atm.
 Atom     1 has atomic number  7 and mass  14.00307
 Molecular mass:    14.00307 amu.
 Zero-point vibrational energy          0.0 (Joules/Mol)
                                    0.00000 (Kcal/Mol)
 Vibrational temperatures:
          (Kelvin)

 Zero-point correction=                           0.000000 (Hartree/Particle)
 Thermal correction to Energy=                    0.001416
 Thermal correction to Enthalpy=                  0.002360
 Thermal correction to Gibbs Free Energy=        -0.015036
 Sum of electronic and zero-point Energies=            -54.598543
 Sum of electronic and thermal Energies=               -54.597127
 Sum of electronic and thermal Enthalpies=             -54.596183
 Sum of electronic and thermal Free Energies=          -54.613579

                     E (Thermal)             CV                S
                      KCal/Mol        Cal/Mol-Kelvin    Cal/Mol-Kelvin
 Total                    0.889              2.981             36.613
 Electronic               0.000              0.000              2.755
 Translational            0.889              2.981             33.858
 Rotational               0.000              0.000              0.000
 Vibrational              0.000              0.000              0.000

 Optimization completed.
    -- Stationary point found.
 Normal termination of Gaussian 16 at Tue Mar  3 14:51:22 2020.

 ----------------------------------------------------------------
 #N Geom=AllCheck Guess=TCheck SCRF=Check Test CCSD(T)/6-31+G(d')
 ----------------------------------------------------------------

 Structure from the checkpoint file:  "n.chk"
 -
 n
 -
 Charge =  0 Multiplicity = 4

 SCF Done:  E(UHF) =  -54.3865764953     A.U. after    8 cycles
 E2 =    -0.7312914523D-01 EUMP2 =    -0.54459705640545D+02
 CCSD(T)= -0.54476212661D+02
 CCSD=-54.475383\CCSD(T)=-54.4762127\S2=3.757247\S2-1=3.752445\S2A=3.75
 Normal termination of Gaussian 16 at Tue Mar  3 14:51:24 2020.

 ----------------------------------------------------------
 #N Geom=AllCheck Guess=TCheck SCRF=Check Test MP4SDQ/CBSB4
 ----------------------------------------------------------

 Structure from the checkpoint file:  "n.chk"
 -
 n
 -
 Charge =  0 Multiplicity = 4

 SCF Done:  E(UHF) =  -54.3865764953     A.U. after    1 cycles
 E2 =    -0.7312914523D-01 EUMP2 =    -0.54459705640547D+02
 Normal termination of Gaussian 16 at Tue Mar  3 14:51:25 2020.

 ----------------------------------------------------------------------
 #N Geom=AllCheck Guess=TCheck SCRF=Check Test MP2/CBSB3 CBSExtrap=(NMi
 n=10,MinPop)
 ----------------------------------------------------------------------

 Structure from the checkpoint file:  "n.chk"
 -
 n
 -
 Charge =  0 Multiplicity = 4

                         Standard orientation:
 ---------------------------------------------------------------------
 Center     Atomic      Atomic             Coordinates (Angstroms)
 Number     Number       Type             X           Y           Z
 ---------------------------------------------------------------------
      1          7           0        0.000000    0.000000    0.000000
 ---------------------------------------------------------------------

 SCF Done:  E(UHF) =  -54.3988924790     A.U. after    8 cycles
 E2 =    -0.9409416348D-01 EUMP2 =    -0.54492986642455D+02
 E2(CBS)=      -0.104910 CBS-Int=       0.003611 OIii=       0.649702

 The electronic state is 4-A1G.
 Alpha  occ. eigenvalues --  -15.67274  -1.16382  -0.57143  -0.57143  -0.57143
 Alpha virt. eigenvalues --    0.13852   0.17110   0.17110   0.17110   0.91376
 Alpha virt. eigenvalues --    0.91376   0.91376   1.09677   1.16189   1.16189
 Alpha virt. eigenvalues --    1.16189   1.16189   1.16189   3.84565   3.84565

  Beta  occ. eigenvalues --  -15.58078  -0.72715
  Beta virt. eigenvalues --    0.08819   0.08819   0.08819   0.16238   0.27329
  Beta virt. eigenvalues --    0.27329   0.27329   1.07605   1.07605   1.07605
  Beta virt. eigenvalues --    1.21388   1.30532   1.30532   1.30532   1.30532

 Mulliken charges and spin densities:
               1          2
     1  N   -0.000000   3.000000
 Sum of Mulliken charges =  -0.00000   3.00000

 Dipole moment (field-independent basis, Debye):
    X=              0.0000    Y=              0.0000    Z=              0.0000  Tot=              0.0000
 Quadrupole moment (field-independent basis, Debye-Ang):
   XX=             -5.4397   YY=             -5.4397   ZZ=             -5.4397
   XY=             -0.0000   XZ=             -0.0000   YZ=              0.0000

 1\1\GINC-ASTERIX\Mixed\CBS-QB3\CBS-QB3\N1(4)\MTMJEA001\03-Mar-2020\0\\
 #CBS-QB3\\n\\0,4\N,0.,0.,0.\\Version=ES64L-G16RevC.01\State=4-A1G\HF/C
 bsB3=-54.3988925\E2(CBS)/CbsB3=-0.1049096\CBS-Int/CbsB3=0.0036108\OIii
 /CbsB3=0.6497018\MP2/CbsB4=-54.4597056\MP4(SDQ)/CbsB4=-54.4749615\MP4(
 SDQ)/6-31+G(d')=-54.4749615\QCISD(T)/6-31+G(d')=-54.4762127\CBSQB3=-54
 .5205338\FreqCoord=0.,0.,0.\PG=OH [O(N1)]\NImag=0\\0.,0.,0.,0.,0.,0.\\
 0.,0.,0.\\\@
 Job cpu time:       0 days  0 hours  0 minutes 14.2 seconds.

 Normal termination of Gaussian 16 at Tue Mar  3 14:51:27 2020.
