 Gaussian 16, Revision C.01,
 Gaussian 16:  ES64L-G16RevC.01  3-Jul-2019

 ---
 #G2
 ---
 1/18=20,19=15,38=1/1,3;
 2/9=110,12=2,17=6,18=5,40=1/2;
 3/5=1,6=6,7=1,11=9,25=1,30=1,71=1/1,2,3;
 4//1;
 5/5=2,38=5/2;

 --------
 methanol
 --------
 Symbolic Z-matrix:
 Charge =  0 Multiplicity = 1

 SCF Done:  E(RHF) =  -115.033763850     A.U. after   11 cycles
 SCF Done:  E(RHF) =  -115.035296172     A.U. after   10 cycles
 SCF Done:  E(RHF) =  -115.035410216     A.U. after    9 cycles
 SCF Done:  E(RHF) =  -115.035417997     A.U. after    8 cycles
 Optimization completed.
    -- Stationary point found.
 Normal termination of Gaussian 16 at Tue Feb 25 15:27:20 2020.

 --------------------------------------------------------------
 #N Geom=AllCheck Guess=TCheck SCRF=Check Test HF/6-31G(d) Freq
 --------------------------------------------------------------

 Structure from the checkpoint file:  "methanol.chk"
 --------
 methanol
 --------
 Charge =  0 Multiplicity = 1

 SCF Done:  E(RHF) =  -115.035417997     A.U. after    1 cycles

  Exact polarizability:      15.591      -0.961      15.071       0.000       0.000      13.490
 Approx polarizability:      12.128      -0.583      12.635       0.000       0.000      11.032

                      1                      2                      3
                      A                      A                      A
 Frequencies --    349.7004              1164.8126              1188.9003
 Red. masses --      1.0715                 1.1003                 5.7974
 Frc consts  --      0.0772                 0.8796                 4.8281
 IR Inten    --    147.6300                69.4156                77.6449
 Raman Activ --      2.9746                 1.6206                 8.9439

                      4                      5                      6
                      A                      A                      A
 Frequencies --   1289.9302              1508.2131              1637.3594
 Red. masses --      1.2655                 1.2952                 1.1572
 Frc consts  --      1.2407                 1.7358                 1.8279
 IR Inten    --      3.4920                44.2174                11.0718
 Raman Activ --      6.7178                 3.7310                 6.7980

                      7                      8                      9
                      A                      A                      A
 Frequencies --   1651.5576              1663.3222              3185.3451
 Red. masses --      1.0500                 1.0516                 1.0367
 Frc consts  --      1.6874                 1.7141                 6.1978
 IR Inten    --      1.0446                 3.1564                62.8513
 Raman Activ --     19.8620                18.3160               121.9882

                     10                     11                     12
                      A                      A                      A
 Frequencies --   3231.7125              3305.5864              4117.0848
 Red. masses --      1.1064                 1.0991                 1.0670
 Frc consts  --      6.8082                 7.0759                10.6555
 IR Inten    --    100.0532                49.0208                40.6589
 Raman Activ --     67.3750                74.4880                70.4853

 - Thermochemistry -
 -------------------
 Temperature   298.150 Kelvin.  Pressure   1.00000 Atm.
 Atom     1 has atomic number  6 and mass  12.00000

 Molecular mass:    32.02621 amu.
 Principal axes and moments of inertia in atomic units:
                           1         2         3
     Eigenvalues --    13.77596  70.96626  73.49976
           X            0.99896  -0.04570  -0.00000
           Y            0.04570   0.99896  -0.00000
           Z            0.00000   0.00000   1.00000
 This molecule is an asymmetric top.
 Rotational symmetry number  1.
 Rotational temperatures (Kelvin)      6.28732     1.22049     1.17842
 Rotational constants (GHZ):         131.00658    25.43097    24.55438
 Zero-point vibrational energy     145307.5 (Joules/Mol)
                                   34.72934 (Kcal/Mol)
 Warning -- explicit consideration of   1 degrees of freedom as
           vibrations may cause significant error
 Vibrational temperatures:    503.14  1675.91  1710.56  1855.92  2169.98
          (Kelvin)           2355.79  2376.22  2393.15  4583.00  4649.71
                             4756.00  5923.57

 Zero-point correction=                           0.055345 (Hartree/Particle)
 Thermal correction to Energy=                    0.058600
 Thermal correction to Enthalpy=                  0.059544
 Thermal correction to Gibbs Free Energy=         0.032673
 Sum of electronic and zero-point Energies=           -114.980073
 Sum of electronic and thermal Energies=              -114.976818
 Sum of electronic and thermal Enthalpies=            -114.975874
 Sum of electronic and thermal Free Energies=         -115.002745

                     E (Thermal)             CV                S
                      KCal/Mol        Cal/Mol-Kelvin    Cal/Mol-Kelvin
 Total                   36.772              8.336             56.555
 Electronic               0.000              0.000              0.000
 Translational            0.889              2.981             36.324
 Rotational               0.889              2.981             18.914
 Vibrational             34.995              2.375              1.317
 Vibration     1          0.727              1.576              1.168

 Optimization completed.
    -- Stationary point found.
 Normal termination of Gaussian 16 at Tue Feb 25 15:27:22 2020.

 ----------------------------------------------------------------------
 #N Geom=AllCheck Guess=TCheck SCRF=Check Test MP2(Full)/6-31G(d) Opt=R
 CFC
 ----------------------------------------------------------------------

 Structure from the checkpoint file:  "methanol.chk"
 --------
 methanol
 --------
 Charge =  0 Multiplicity = 1

 SCF Done:  E(RHF) =  -115.035417997     A.U. after    1 cycles
 E2 =    -0.3167415452D+00 EUMP2 =    -0.11535215954267D+03
 SCF Done:  E(RHF) =  -115.034418804     A.U. after   10 cycles
 E2 =    -0.3188644067D+00 EUMP2 =    -0.11535328321077D+03
 SCF Done:  E(RHF) =  -115.034187764     A.U. after    9 cycles
 E2 =    -0.3191072337D+00 EUMP2 =    -0.11535329499821D+03
 Optimization completed.
    -- Stationary point found.
 Normal termination of Gaussian 16 at Tue Feb 25 15:27:28 2020.

 ----------------------------------------------------------------------
 #N Geom=AllCheck Guess=TCheck SCRF=Check Test QCISD(T,E4T)/6-311G(d,p)
 ----------------------------------------------------------------------

 Structure from the checkpoint file:  "methanol.chk"
 --------
 methanol
 --------
 Charge =  0 Multiplicity = 1

 SCF Done:  E(RHF) =  -115.074227416     A.U. after   10 cycles
 E2 =    -0.3619772849D+00 EUMP2 =    -0.11543620470066D+03
 Normal termination of Gaussian 16 at Tue Feb 25 15:27:31 2020.

 --------------------------------------------------------------
 #N Geom=AllCheck Guess=TCheck SCRF=Check Test MP4/6-311+G(d,p)
 --------------------------------------------------------------

 Structure from the checkpoint file:  "methanol.chk"
 --------
 methanol
 --------
 Charge =  0 Multiplicity = 1

 SCF Done:  E(RHF) =  -115.078781928     A.U. after   10 cycles
 E2 =    -0.3660733506D+00 EUMP2 =    -0.11544485527909D+03
 Normal termination of Gaussian 16 at Tue Feb 25 15:27:33 2020.

 ---------------------------------------------------------------
 #N Geom=AllCheck Guess=TCheck SCRF=Check Test MP4/6-311G(2df,p)
 ---------------------------------------------------------------

 Structure from the checkpoint file:  "methanol.chk"
 --------
 methanol
 --------
 Charge =  0 Multiplicity = 1

 SCF Done:  E(RHF) =  -115.079630169     A.U. after   10 cycles
 E2 =    -0.4131008885D+00 EUMP2 =    -0.11549273105799D+03
 Normal termination of Gaussian 16 at Tue Feb 25 15:27:36 2020.

                         Standard orientation:
 ---------------------------------------------------------------------
 Center     Atomic      Atomic             Coordinates (Angstroms)
 Number     Number       Type             X           Y           Z
 ---------------------------------------------------------------------
      1          6           0       -0.665664   -0.019523    0.000000
      2          8           0        0.750082    0.122708    0.000000
      3          1           0       -1.031722   -0.542948    0.891693
      4          1           0       -1.031722   -0.542946   -0.891694
      5          1           0       -1.074650    0.990494    0.000001
      6          1           0        1.131424   -0.769124   -0.000000
 ---------------------------------------------------------------------

 SCF Done:  E(RHF) =  -115.087791608     A.U. after   10 cycles
 E2 =    -0.4258681395D+00 EUMP2 =    -0.11551365974772D+03

 The electronic state is 1-A.
 Alpha  occ. eigenvalues --  -20.56043 -11.27135  -1.35561  -0.92406  -0.68981
 Alpha  occ. eigenvalues --   -0.61932  -0.59212  -0.50505  -0.45208
 Alpha virt. eigenvalues --    0.06815   0.08700   0.10131   0.10328   0.23215
 Alpha virt. eigenvalues --    0.25127   0.26173   0.27146   0.29753   0.30634
 Alpha virt. eigenvalues --    0.31147   0.33008   0.41950   0.43131   0.43745

 Mulliken charges:
               1
     1  C    0.157739
     2  O   -0.679480
     3  H    0.102044
     4  H    0.102044
     5  H    0.104110
     6  H    0.213544
 Sum of Mulliken charges =  -0.00000

 Dipole moment (field-independent basis, Debye):
    X=             -0.9633    Y=             -1.5733    Z=              0.0000  Tot=              1.8448
 Quadrupole moment (field-independent basis, Debye-Ang):
   XX=            -13.0616   YY=            -12.0527   ZZ=            -13.7578
   XY=             -2.2971   XZ=             -0.0000   YZ=              0.0000

 Normal termination of Gaussian 16 at Tue Feb 25 15:27:39 2020.
