 Gaussian 16, Revision C.01,
 Gaussian 16:  ES64L-G16RevC.01  3-Jul-2019

 ---
 #g2
 ---
 1/18=20,19=15,38=1/1,3;
 2/9=110,12=2,17=6,18=5,40=1/2;
 3/5=1,6=6,7=1,11=9,25=1,30=1,71=1/1,2,3;
 4//1;
 5/5=2,38=5/2;

 -----
 water
 -----
 Symbolic Z-matrix:
 Charge =  0 Multiplicity = 1

 SCF Done:  E(RHF) =  -76.0097720051     A.U. after   10 cycles
 SCF Done:  E(RHF) =  -76.0107377890     A.U. after    9 cycles
 SCF Done:  E(RHF) =  -76.0107460412     A.U. after    8 cycles
 SCF Done:  E(RHF) =  -76.0107465155     A.U. after    7 cycles
 Optimization completed.
    -- Stationary point found.
 Normal termination of Gaussian 16 at Tue Feb 25 10:57:48 2020.

 --------------------------------------------------------------
 #N Geom=AllCheck Guess=TCheck SCRF=Check Test HF/6-31G(d) Freq
 --------------------------------------------------------------

 Structure from the checkpoint file:  "/scratch/mtmjea001/water/Gau-21391.chk"
 -----
 water
 -----
 Charge =  0 Multiplicity = 1

 SCF Done:  E(RHF) =  -76.0107465155     A.U. after    1 cycles

  Exact polarizability:       6.679      -0.000       4.808      -0.000      -0.000       2.778
 Approx polarizability:       5.340      -0.000       4.005      -0.000      -0.000       2.363

                      1                      2                      3
                     A'                     A'                     A'
 Frequencies --   1826.5605              4070.4304              4188.6737
 Red. masses --      1.0823                 1.0455                 1.0828
 Frc consts  --      2.1275                10.2062                11.1936
 IR Inten    --    107.2699                18.2086                58.1091
 Raman Activ --      5.7237                75.5374                39.0870

 - Thermochemistry -
 -------------------
 Temperature   298.150 Kelvin.  Pressure   1.00000 Atm.
 Atom     1 has atomic number  8 and mass  15.99491

 Molecular mass:    18.01056 amu.
 Principal axes and moments of inertia in atomic units:
                           1         2         3
     Eigenvalues --     2.10184   4.09292   6.19475
           X            1.00000   0.00000   0.00000
           Y           -0.00000   1.00000   0.00000
           Z            0.00000  -0.00000   1.00000
 This molecule is an asymmetric top.
 Rotational symmetry number  1.
 Rotational temperatures (Kelvin)     41.20871    21.16189    13.98182
 Rotational constants (GHZ):         858.65020   440.94229   291.33377
 Zero-point vibrational energy      60325.7 (Joules/Mol)
                                   14.41818 (Kcal/Mol)
 Vibrational temperatures:   2628.01  5856.44  6026.57
          (Kelvin)

 Zero-point correction=                           0.022977 (Hartree/Particle)
 Thermal correction to Energy=                    0.025811
 Thermal correction to Enthalpy=                  0.026755
 Thermal correction to Gibbs Free Energy=         0.004726
 Sum of electronic and zero-point Energies=            -75.987770
 Sum of electronic and thermal Energies=               -75.984936
 Sum of electronic and thermal Enthalpies=             -75.983992
 Sum of electronic and thermal Free Energies=          -76.006021

                     E (Thermal)             CV                S
                      KCal/Mol        Cal/Mol-Kelvin    Cal/Mol-Kelvin
 Total                   16.196              5.985             46.364
 Electronic               0.000              0.000              0.000
 Translational            0.889              2.981             34.608
 Rotational               0.889              2.981             11.753
 Vibrational             14.419              0.023              0.003

 Optimization completed.
    -- Stationary point found.
 Normal termination of Gaussian 16 at Tue Feb 25 10:57:50 2020.

 ----------------------------------------------------------------------
 #N Geom=AllCheck Guess=TCheck SCRF=Check Test MP2(Full)/6-31G(d) Opt=R
 CFC
 ----------------------------------------------------------------------

 Structure from the checkpoint file:  "/scratch/mtmjea001/water/Gau-21391.chk"
 -----
 water
 -----
 Charge =  0 Multiplicity = 1

 SCF Done:  E(RHF) =  -76.0107465155     A.U. after    1 cycles
 E2 =    -0.1876203691D+00 EUMP2 =    -0.76198366884603D+02
 SCF Done:  E(RHF) =  -76.0099629274     A.U. after    9 cycles
 E2 =    -0.1892744857D+00 EUMP2 =    -0.76199237413133D+02
 SCF Done:  E(RHF) =  -76.0098080044     A.U. after    8 cycles
 E2 =    -0.1894361565D+00 EUMP2 =    -0.76199244160884D+02
 Optimization completed.
    -- Stationary point found.
 Normal termination of Gaussian 16 at Tue Feb 25 10:57:56 2020.

 ----------------------------------------------------------------------
 #N Geom=AllCheck Guess=TCheck SCRF=Check Test QCISD(T,E4T)/6-311G(d,p)
 ----------------------------------------------------------------------

 Structure from the checkpoint file:  "/scratch/mtmjea001/water/Gau-21391.chk"
 -----
 water
 -----
 Charge =  0 Multiplicity = 1

 SCF Done:  E(RHF) =  -76.0454271667     A.U. after   10 cycles
 E2 =    -0.2182268396D+00 EUMP2 =    -0.76263654006375D+02
 Normal termination of Gaussian 16 at Tue Feb 25 10:57:57 2020.

 --------------------------------------------------------------
 #N Geom=AllCheck Guess=TCheck SCRF=Check Test MP4/6-311+G(d,p)
 --------------------------------------------------------------

 Structure from the checkpoint file:  "/scratch/mtmjea001/water/Gau-21391.chk"
 -----
 water
 -----
 Charge =  0 Multiplicity = 1

 SCF Done:  E(RHF) =  -76.0517082442     A.U. after   10 cycles
 E2 =    -0.2228384531D+00 EUMP2 =    -0.76274546697307D+02
 Normal termination of Gaussian 16 at Tue Feb 25 10:57:58 2020.

 ---------------------------------------------------------------
 #N Geom=AllCheck Guess=TCheck SCRF=Check Test MP4/6-311G(2df,p)
 ---------------------------------------------------------------

 Structure from the checkpoint file:  "/scratch/mtmjea001/water/Gau-21391.chk"
 -----
 water
 -----
 Charge =  0 Multiplicity = 1

 SCF Done:  E(RHF) =  -76.0477777646     A.U. after   10 cycles
 E2 =    -0.2511648237D+00 EUMP2 =    -0.76298942588290D+02
 Normal termination of Gaussian 16 at Tue Feb 25 10:58:00 2020.

                         Standard orientation:
 ---------------------------------------------------------------------
 Center     Atomic      Atomic             Coordinates (Angstroms)
 Number     Number       Type             X           Y           Z
 ---------------------------------------------------------------------
      1          8           0       -0.000000    0.000000    0.119286
      2          1           0        0.000000    0.763150   -0.477143
      3          1           0       -0.000000   -0.763150   -0.477143
 ---------------------------------------------------------------------

 SCF Done:  E(RHF) =  -76.0565240877     A.U. after   10 cycles
 E2 =    -0.2615843531D+00 EUMP2 =    -0.76318108440889D+02

 The electronic state is 1-A1.
 Alpha  occ. eigenvalues --  -20.56865  -1.34835  -0.71180  -0.58456  -0.51001
 Alpha virt. eigenvalues --    0.14267   0.20500   0.23729   0.24599   0.26222
 Alpha virt. eigenvalues --    0.30259   0.64195   0.65714   0.77325   0.81260
 Alpha virt. eigenvalues --    0.86450   1.00159   1.06875   1.17739   1.19312

 Mulliken charges:
               1
     1  O   -0.489132
     2  H    0.244566
     3  H    0.244566
 Sum of Mulliken charges =   0.00000

 Dipole moment (field-independent basis, Debye):
    X=             -0.0000    Y=              0.0000    Z=             -2.0377  Tot=              2.0377
 Quadrupole moment (field-independent basis, Debye-Ang):
   XX=             -7.6100   YY=             -4.2280   ZZ=             -6.2106
   XY=              0.0000   XZ=              0.0000   YZ=             -0.0000

 Normal termination of Gaussian 16 at Tue Feb 25 10:58:02 2020.
