 Gaussian 16, Revision C.01,
 Gaussian 16:  ES64L-G16RevC.01  3-Jul-2019

 --------
 #CBS-QB3
 --------

 ------
 carbon
 ------
 Symbolic Z-matrix:
 Charge =  0 Multiplicity = 3

 SCF Done:  E(UB3LYP) =  -37.8559884919     A.U. after    8 cycles
 SCF Done:  E(UB3LYP) =  -37.8559884919     A.U. after    1 cycles
 Optimization completed.
    -- Stationary point found.
 Normal termination of Gaussian 16 at Tue Mar  3 14:58:11 2020.

 --------------------------------------------------------------
 #N Geom=AllCheck Guess=TCheck SCRF=Check Test B3LYP/CBSB7 Freq
 --------------------------------------------------------------

 Structure from the checkpoint file:  "carbon.chk"
 ------
 carbon
 ------
 Charge =  0 Multiplicity = 3

 SCF Done:  E(UB3LYP) =  -37.8559884919     A.U. after    1 cycles

  Exact polarizability:       7.428      -0.000       7.180      -0.000      -0.000       7.180
 Approx polarizability:      10.892      -0.000       7.240      -0.000      -0.000       7.240

 - Thermochemistry -
 -------------------
 Temperature   298.150 Kelvin.  Pressure   1.00000 Atm.
 Atom     1 has atomic number  6 and mass  12.00000
 Molecular mass:    12.00000 amu.
 Zero-point vibrational energy          0.0 (Joules/Mol)
                                    0.00000 (Kcal/Mol)
 Vibrational temperatures:
          (Kelvin)

 Zero-point correction=                           0.000000 (Hartree/Particle)
 Thermal correction to Energy=                    0.001416
 Thermal correction to Enthalpy=                  0.002360
 Thermal correction to Gibbs Free Energy=        -0.014545
 Sum of electronic and zero-point Energies=            -37.855988
 Sum of electronic and thermal Energies=               -37.854572
 Sum of electronic and thermal Enthalpies=             -37.853628
 Sum of electronic and thermal Free Energies=          -37.870534

                     E (Thermal)             CV                S
                      KCal/Mol        Cal/Mol-Kelvin    Cal/Mol-Kelvin
 Total                    0.889              2.981             35.581
 Electronic               0.000              0.000              2.183
 Translational            0.889              2.981             33.398
 Rotational               0.000              0.000              0.000
 Vibrational              0.000              0.000              0.000

 Optimization completed.
    -- Stationary point found.
 Normal termination of Gaussian 16 at Tue Mar  3 14:58:14 2020.

 ----------------------------------------------------------------
 #N Geom=AllCheck Guess=TCheck SCRF=Check Test CCSD(T)/6-31+G(d')
 ----------------------------------------------------------------

 Structure from the checkpoint file:  "carbon.chk"
 ------
 carbon
 ------
 Charge =  0 Multiplicity = 3

 SCF Done:  E(UHF) =  -37.6841266166     A.U. after    8 cycles
 E2 =    -0.5399608744D-01 EUMP2 =    -0.37738122704008D+02
 CCSD(T)= -0.37759785691D+02
 814\CCSD=-37.7587429\CCSD(T)=-37.7597857\S2=2.007523\S2-1=2.001072\S2A
 Normal termination of Gaussian 16 at Tue Mar  3 14:58:15 2020.

 ----------------------------------------------------------
 #N Geom=AllCheck Guess=TCheck SCRF=Check Test MP4SDQ/CBSB4
 ----------------------------------------------------------

 Structure from the checkpoint file:  "carbon.chk"
 ------
 carbon
 ------
 Charge =  0 Multiplicity = 3

 SCF Done:  E(UHF) =  -37.6841266166     A.U. after    1 cycles
 E2 =    -0.5399608730D-01 EUMP2 =    -0.37738122703874D+02
 Normal termination of Gaussian 16 at Tue Mar  3 14:58:17 2020.

 ----------------------------------------------------------------------
 #N Geom=AllCheck Guess=TCheck SCRF=Check Test MP2/CBSB3 CBSExtrap=(NMi
 n=10,MinPop)
 ----------------------------------------------------------------------

 Structure from the checkpoint file:  "carbon.chk"
 ------
 carbon
 ------
 Charge =  0 Multiplicity = 3

                         Standard orientation:
 ---------------------------------------------------------------------
 Center     Atomic      Atomic             Coordinates (Angstroms)
 Number     Number       Type             X           Y           Z
 ---------------------------------------------------------------------
      1          6           0        0.000000    0.000000    0.000000
 ---------------------------------------------------------------------

 SCF Done:  E(UHF) =  -37.6901979124     A.U. after    8 cycles
 E2 =    -0.6583734266D-01 EUMP2 =    -0.37756035255026D+02
 E2(CBS)=      -0.073638 CBS-Int=       0.003221 OIii=       0.518514

 Unable to determine electronic state:  an orbital has unidentified symmetry.
 Alpha  occ. eigenvalues --  -11.34628  -0.82976  -0.43922  -0.43922
 Alpha virt. eigenvalues --    0.01838   0.09882   0.12170   0.12170   0.15426
 Alpha virt. eigenvalues --    0.67552   0.67552   0.73168   0.79963   0.80820
 Alpha virt. eigenvalues --    0.80820   0.82721   0.82721   0.83730   3.00835

  Beta  occ. eigenvalues --  -11.29995  -0.58424
  Beta virt. eigenvalues --    0.04113   0.07125   0.07125   0.11194   0.17250
  Beta virt. eigenvalues --    0.21132   0.21132   0.75728   0.80444   0.80444
  Beta virt. eigenvalues --    0.86289   0.88302   0.88848   0.88848   0.92404

 Mulliken charges and spin densities:
               1          2
     1  C    0.000000   2.000000
 Sum of Mulliken charges =   0.00000   2.00000

 Dipole moment (field-independent basis, Debye):
    X=              0.0000    Y=              0.0000    Z=              0.0000  Tot=              0.0000
 Quadrupole moment (field-independent basis, Debye-Ang):
   XX=             -4.8675   YY=             -6.8625   ZZ=             -6.8625
   XY=              0.0000   XZ=             -0.0000   YZ=             -0.0000

 1\1\GINC-ASTERIX\Mixed\CBS-QB3\CBS-QB3\C1(3)\MTMJEA001\03-Mar-2020\0\\
 #CBS-QB3\\carbon\\0,3\C,-4.69883,2.55874,0.\\Version=ES64L-G16RevC.01\
 HF/CbsB3=-37.6901979\E2(CBS)/CbsB3=-0.0736385\CBS-Int/CbsB3=0.003221\O
 Iii/CbsB3=0.5185144\MP2/CbsB4=-37.7381227\MP4(SDQ)/CbsB4=-37.756814\MP
 4(SDQ)/6-31+G(d')=-37.756814\QCISD(T)/6-31+G(d')=-37.7597857\CBSQB3=-3
 7.7853755\FreqCoord=-8.8795018059,4.835317824,0.\PG=OH [O(C1)]\NImag=0
 \\0.,0.,0.,0.,0.,0.\\0.,0.,0.\\\@
 Job cpu time:       0 days  0 hours  0 minutes 13.2 seconds.

 Normal termination of Gaussian 16 at Tue Mar  3 14:58:18 2020.
