 Gaussian 16, Revision C.01,
 Gaussian 16:  ES64L-G16RevC.01  3-Jul-2019

 --------
 #CBS-QB3
 --------

 --------------
 c2c1im_scn.chk
 --------------
 Symbolic Z-matrix:
 Charge =  0 Multiplicity = 1

 SCF Done:  E(RB3LYP) =  -835.915280851     A.U. after   15 cycles
 SCF Done:  E(RB3LYP) =  -835.922425736     A.U. after   11 cycles
 SCF Done:  E(RB3LYP) =  -835.927105591     A.U. after   12 cycles
 SCF Done:  E(RB3LYP) =  -835.927966268     A.U. after   12 cycles
 SCF Done:  E(RB3LYP) =  -835.929482533     A.U. after   12 cycles
 SCF Done:  E(RB3LYP) =  -835.930533488     A.U. after   12 cycles
 SCF Done:  E(RB3LYP) =  -835.931190790     A.U. after   12 cycles
 SCF Done:  E(RB3LYP) =  -835.931408144     A.U. after   11 cycles
 SCF Done:  E(RB3LYP) =  -835.931553485     A.U. after   10 cycles
 SCF Done:  E(RB3LYP) =  -835.931679415     A.U. after   11 cycles
 SCF Done:  E(RB3LYP) =  -835.932013929     A.U. after    7 cycles
 SCF Done:  E(RB3LYP) =  -835.932013930     A.U. after    7 cycles
 SCF Done:  E(RB3LYP) =  -835.932013930     A.U. after    7 cycles
 SCF Done:  E(RB3LYP) =  -835.932013930     A.U. after    7 cycles
 SCF Done:  E(RB3LYP) =  -835.932013932     A.U. after    7 cycles
 SCF Done:  E(RB3LYP) =  -835.932013935     A.U. after    7 cycles
 Optimization completed.
    -- Stationary point found.
 Normal termination of Gaussian 16 at Wed Mar  4 15:10:19 2020.

 --------------------------------------------------------------
 #N Geom=AllCheck Guess=TCheck SCRF=Check Test B3LYP/CBSB7 Freq
 --------------------------------------------------------------

 Structure from the checkpoint file:  "c2c1im_scn.chk"
 --------------
 c2c1im_scn.chk
 --------------
 Charge =  0 Multiplicity = 1

 SCF Done:  E(RB3LYP) =  -835.932013935     A.U. after    1 cycles

  Exact polarizability:     131.106      13.456     139.639       1.239      10.499      74.981
 Approx polarizability:     183.017      30.533     227.439       4.312      31.632     118.737

                      1                      2                      3
                      A                      A                      A
 Frequencies --     14.4490                38.0004                53.3963
 Red. masses --      6.2554                 4.7907                 4.7033
 Frc consts  --      0.0008                 0.0041                 0.0079
 IR Inten    --      0.7464                 6.5494                 4.1488

                      4                      5                      6
                      A                      A                      A
 Frequencies --     57.4189                80.6678               122.1200
 Red. masses --      4.0088                 4.1445                 3.1641
 Frc consts  --      0.0078                 0.0159                 0.0278
 IR Inten    --      2.4692                 4.6900                 2.9294

                      7                      8                      9
                      A                      A                      A
 Frequencies --    178.0255               189.6528               209.7991
 Red. masses --      1.1925                 5.2604                 1.2626
 Frc consts  --      0.0223                 0.1115                 0.0327
 IR Inten    --      0.0171                54.0516                 2.9615

                     10                     11                     12
                      A                      A                      A
 Frequencies --    239.8369               304.2417               385.1494
 Red. masses --      2.5621                 2.1180                 3.2568
 Frc consts  --      0.0868                 0.1155                 0.2846
 IR Inten    --      2.0346                 1.1329                 0.3619

                     13                     14                     15
                      A                      A                      A
 Frequencies --    429.0368               474.9717               508.4583
 Red. masses --      2.5934                12.6984                12.1858
 Frc consts  --      0.2813                 1.6879                 1.8562
 IR Inten    --      3.6832                 2.3964                 3.9108

                     16                     17                     18
                      A                      A                      A
 Frequencies --    595.9549               637.6326               667.4519
 Red. masses --      3.7082                 3.4061                 3.5068
 Frc consts  --      0.7760                 0.8159                 0.9205
 IR Inten    --      1.4179                 7.1686                18.1325

                     19                     20                     21
                      A                      A                      A
 Frequencies --    699.7256               739.9303               750.1620
 Red. masses --      3.7605                 1.2378                16.5395
 Frc consts  --      1.0848                 0.3993                 5.4838
 IR Inten    --     12.3831                41.2326                 8.8025

                     22                     23                     24
                      A                      A                      A
 Frequencies --    814.1338               852.3654               947.4890
 Red. masses --      1.1303                 1.3612                 1.2996
 Frc consts  --      0.4414                 0.5827                 0.6874
 IR Inten    --      5.2510                 0.0531                23.0562

                     25                     26                     27
                      A                      A                      A
 Frequencies --    965.2528              1037.1932              1043.8289
 Red. masses --      2.4118                 3.8826                 2.8850
 Frc consts  --      1.3240                 2.4609                 1.8520
 IR Inten    --      4.0858                13.3874                 1.6768

                     28                     29                     30
                      A                      A                      A
 Frequencies --   1103.9571              1111.1488              1124.0491
 Red. masses --      1.7797                 1.2537                 1.5334
 Frc consts  --      1.2779                 0.9120                 1.1415
 IR Inten    --      3.9413                 5.4173                 0.4876

                     31                     32                     33
                      A                      A                      A
 Frequencies --   1136.0778              1164.2098              1170.7411
 Red. masses --      1.5369                 1.3409                 1.8636
 Frc consts  --      1.1688                 1.0708                 1.5050
 IR Inten    --     15.4787                 8.4029                64.1303

                     34                     35                     36
                      A                      A                      A
 Frequencies --   1265.9421              1314.8961              1347.1363
 Red. masses --      1.4113                 1.5036                 4.4415
 Frc consts  --      1.3326                 1.5317                 4.7490
 IR Inten    --     19.3169                 2.9973                 9.4207

                     37                     38                     39
                      A                      A                      A
 Frequencies --   1393.0636              1415.0022              1425.8565
 Red. masses --      1.7756                 1.5183                 1.5571
 Frc consts  --      2.0302                 1.7912                 1.8652
 IR Inten    --      9.6151                 5.4620                12.6657

                     40                     41                     42
                      A                      A                      A
 Frequencies --   1449.8757              1470.2151              1492.6904
 Red. masses --      2.1442                 1.2623                 1.0399
 Frc consts  --      2.6557                 1.6076                 1.3652
 IR Inten    --      4.5152                 5.4407                 6.9369

                     43                     44                     45
                      A                      A                      A
 Frequencies --   1497.2091              1509.0620              1515.3382
 Red. masses --      1.0487                 1.0455                 1.1702
 Frc consts  --      1.3851                 1.4027                 1.5832
 IR Inten    --      7.2426                12.1012                 5.8981

                     46                     47                     48
                      A                      A                      A
 Frequencies --   1517.3495              1590.4137              1601.7864
 Red. masses --      1.1313                 3.4854                 3.8735
 Frc consts  --      1.5346                 5.1943                 5.8555
 IR Inten    --      5.0124                75.8324                17.1608

                     49                     50                     51
                      A                      A                      A
 Frequencies --   2121.6016              3024.6280              3032.4605
 Red. masses --     12.5170                 1.0670                 1.0350
 Frc consts  --     33.1954                 5.7512                 5.6076
 IR Inten    --    384.6914                69.5598                60.4224

                     52                     53                     54
                      A                      A                      A
 Frequencies --   3038.7653              3091.2258              3108.7735
 Red. masses --      1.0384                 1.1001                 1.1024
 Frc consts  --      5.6495                 6.1936                 6.2771
 IR Inten    --      7.2259                 6.9045                20.4374

                     55                     56                     57
                      A                      A                      A
 Frequencies --   3115.6007              3119.2154              3127.0279
 Red. masses --      1.1075                 1.1031                 1.1098
 Frc consts  --      6.3340                 6.3234                 6.3940
 IR Inten    --    169.8009                15.5422               397.8169

                     58                     59                     60
                      A                      A                      A
 Frequencies --   3134.0436              3274.3870              3292.7891
 Red. masses --      1.1065                 1.0922                 1.1092
 Frc consts  --      6.4037                 6.8994                 7.0855
 IR Inten    --     22.4253                 5.9923                 1.8212

 - Thermochemistry -
 -------------------
 Temperature   298.150 Kelvin.  Pressure   1.00000 Atm.
 Atom     1 has atomic number  6 and mass  12.00000

 Molecular mass:   169.06737 amu.
 Principal axes and moments of inertia in atomic units:
                           1         2         3
     Eigenvalues --  1693.900862693.753384109.18495
           X            0.99981   0.01937  -0.00215
           Y           -0.01939   0.99976  -0.00998
           Z            0.00195   0.01002   0.99995
 This molecule is an asymmetric top.
 Rotational symmetry number  1.
 Warning -- assumption of classical behavior for rotation
           may cause significant error
 Rotational temperatures (Kelvin)      0.05113     0.03215     0.02108
 Rotational constants (GHZ):           1.06543     0.66997     0.43920
 Zero-point vibrational energy     467338.4 (Joules/Mol)
                                  111.69657 (Kcal/Mol)
 Warning -- explicit consideration of  16 degrees of freedom as
           vibrations may cause significant error
 Vibrational temperatures:     20.79    54.67    76.83    82.61   116.06
          (Kelvin)            175.70   256.14   272.87   301.85   345.07
                              437.74   554.14   617.29   683.38   731.56
                              857.45   917.41   960.31  1006.75  1064.59
                             1079.32  1171.36  1226.36  1363.23  1388.78
                             1492.29  1501.84  1588.35  1598.70  1617.26
                             1634.56  1675.04  1684.44  1821.41  1891.84
                             1938.23  2004.31  2035.87  2051.49  2086.05
                             2115.31  2147.65  2154.15  2171.20  2180.23
                             2183.13  2288.25  2304.61  3052.51  4351.77
                             4363.03  4372.11  4447.58  4472.83  4482.65
                             4487.86  4499.10  4509.19  4711.11  4737.59

 Zero-point correction=                           0.178000 (Hartree/Particle)
 Thermal correction to Energy=                    0.190669
 Thermal correction to Enthalpy=                  0.191613
 Thermal correction to Gibbs Free Energy=         0.135649
 Sum of electronic and zero-point Energies=           -835.754014
 Sum of electronic and thermal Energies=              -835.741345
 Sum of electronic and thermal Enthalpies=            -835.740401
 Sum of electronic and thermal Free Energies=         -835.796365

                     E (Thermal)             CV                S
                      KCal/Mol        Cal/Mol-Kelvin    Cal/Mol-Kelvin
 Total                  119.646             43.047            117.786
 Electronic               0.000              0.000              0.000
 Translational            0.889              2.981             41.283
 Rotational               0.889              2.981             31.306
 Vibrational            117.869             37.085             45.197
 Vibration     1          0.593              1.986              7.280
 Vibration     2          0.594              1.982              5.361
 Vibration     3          0.596              1.976              4.687
 Vibration     4          0.596              1.975              4.544
 Vibration     5          0.600              1.962              3.875
 Vibration     6          0.610              1.931              3.067
 Vibration     7          0.628              1.869              2.349
 Vibration     8          0.633              1.854              2.231
 Vibration     9          0.642              1.826              2.045
 Vibration    10          0.657              1.779              1.804
 Vibration    11          0.695              1.666              1.393
 Vibration    12          0.754              1.502              1.019
 Vibration    13          0.790              1.407              0.862
 Vibration    14          0.832              1.306              0.724
 Vibration    15          0.864              1.231              0.637
 Vibration    16          0.954              1.040              0.457

 Optimization completed.
    -- Stationary point found.
 Normal termination of Gaussian 16 at Wed Mar  4 15:14:03 2020.

 ----------------------------------------------------------------
 #N Geom=AllCheck Guess=TCheck SCRF=Check Test CCSD(T)/6-31+G(d')
 ----------------------------------------------------------------

 Structure from the checkpoint file:  "c2c1im_scn.chk"
 --------------
 c2c1im_scn.chk
 --------------
 Charge =  0 Multiplicity = 1

 SCF Done:  E(RHF) =  -832.320378658     A.U. after   14 cycles
 E2 =    -0.1535053870D+01 EUMP2 =    -0.83385543252766D+03
 CCSD(T)= -0.83398980637D+03
 33.9241714\CCSD=-833.9231182\CCSD(T)=-833.9898064\RMSD=7.205e-09\PG=C0
 Normal termination of Gaussian 16 at Wed Mar  4 18:24:43 2020.

 ----------------------------------------------------------
 #N Geom=AllCheck Guess=TCheck SCRF=Check Test MP4SDQ/CBSB4
 ----------------------------------------------------------

 Structure from the checkpoint file:  "c2c1im_scn.chk"
 --------------
 c2c1im_scn.chk
 --------------
 Charge =  0 Multiplicity = 1

 SCF Done:  E(RHF) =  -832.339819459     A.U. after   11 cycles
 E2 =    -0.1625782173D+01 EUMP2 =    -0.83396560163235D+03
 Normal termination of Gaussian 16 at Wed Mar  4 18:29:43 2020.

 ----------------------------------------------------------------------
 #N Geom=AllCheck Guess=TCheck SCRF=Check Test MP2/CBSB3 CBSExtrap=(NMi
 n=10,MinPop)
 ----------------------------------------------------------------------

 Structure from the checkpoint file:  "c2c1im_scn.chk"
 --------------
 c2c1im_scn.chk
 --------------
 Charge =  0 Multiplicity = 1

                         Standard orientation:
 ---------------------------------------------------------------------
 Center     Atomic      Atomic             Coordinates (Angstroms)
 Number     Number       Type             X           Y           Z
 ---------------------------------------------------------------------
      1          6           0        0.537752   -2.954108    0.978602
      2          6           0        0.323868   -2.103666   -0.269022
      3          7           0        1.102307   -0.845507   -0.231772
      4          6           0        2.441151   -0.681754   -0.540822
      5          6           0        2.730988    0.638418   -0.380950
      6          7           0        1.564534    1.259440    0.026833
      7          6           0        0.598040    0.342093    0.112264
      8          6           0        1.355495    2.689756    0.299460
      9          6           0       -2.474437    1.037799    0.129837
     10          7           0       -1.902270    1.992843    0.513157
     11         16           0       -3.140292   -0.377344   -0.409205
     12          1           0        1.584697   -3.242400    1.104396
     13          1           0       -0.058493   -3.865119    0.895111
     14          1           0        0.209709   -2.420754    1.873040
     15          1           0       -0.724467   -1.807372   -0.375680
     16          1           0        0.623882   -2.633628   -1.174856
     17          1           0        3.061728   -1.503390   -0.853272
     18          1           0        3.648986    1.180166   -0.528266
     19          1           0       -0.425241    0.581688    0.388732
     20          1           0        0.286492    2.839440    0.469447
     21          1           0        1.679623    3.268759   -0.565252
     22          1           0        1.928616    2.981445    1.180138
 ---------------------------------------------------------------------

 SCF Done:  E(RHF) =  -832.484137544     A.U. after   12 cycles
 E2 =    -0.1907849432D+01 EUMP2 =    -0.83439198697692D+03
 E2(CBS)=      -2.093275 CBS-Int=       0.064687 OIii=      15.284443

 The electronic state is 1-A.
 Alpha  occ. eigenvalues --  -91.86896 -15.68726 -15.68501 -15.49721 -11.36933
 Alpha  occ. eigenvalues --  -11.32796 -11.32632 -11.30646 -11.30182 -11.25104
 Alpha  occ. eigenvalues --  -11.24557  -8.87142  -6.55403  -6.55181  -6.55176
 Alpha  occ. eigenvalues --   -1.43658  -1.29298  -1.15845  -1.11019  -1.07009
 Alpha  occ. eigenvalues --   -1.01189  -0.92390  -0.91917  -0.87997  -0.85468
 Alpha  occ. eigenvalues --   -0.77596  -0.71143  -0.69158  -0.67229  -0.66653
 Alpha  occ. eigenvalues --   -0.65817  -0.63264  -0.62852  -0.59832  -0.57212
 Alpha  occ. eigenvalues --   -0.56035  -0.55238  -0.53650  -0.48018  -0.46301
 Alpha  occ. eigenvalues --   -0.45215  -0.44954  -0.39571  -0.28519  -0.28086
 Alpha virt. eigenvalues --    0.01482   0.02842   0.03938   0.04576   0.05318
 Alpha virt. eigenvalues --    0.05760   0.06971   0.07733   0.08912   0.09219
 Alpha virt. eigenvalues --    0.09936   0.10244   0.10362   0.11204   0.12192

 Mulliken charges:
               1
     1  C   -0.292185
     2  C    0.049278
     3  N    0.120837
     4  C   -0.152389
     5  C   -0.250425
     6  N    0.116164
     7  C   -0.147588
     8  C   -0.095874
     9  C    0.411599
    10  N   -0.523014
    11  S   -0.764395
    12  H    0.062006
    13  H    0.080457
    14  H    0.083804
    15  H    0.095290
    16  H    0.084676
    17  H    0.174186
    18  H    0.176389
    19  H    0.432156
    20  H    0.165109
    21  H    0.084413
    22  H    0.089506
 Sum of Mulliken charges =  -0.00000

 Dipole moment (field-independent basis, Debye):
    X=             13.3172    Y=             -2.4315    Z=             -0.2825  Tot=             13.5403
 Quadrupole moment (field-independent basis, Debye-Ang):
   XX=            -89.2041   YY=            -66.5355   ZZ=            -77.4377
   XY=              8.1949   XZ=             -2.8918   YZ=             -0.6339

 Normal termination of Gaussian 16 at Wed Mar  4 18:39:25 2020.
