 Gaussian 16, Revision C.01,
 Gaussian 16:  ES64L-G16RevC.01  3-Jul-2019

 --------
 #CBS-QB3
 --------

 ---------------
 c2c1im_cso3.gjf
 ---------------
 Symbolic Z-matrix:
 Charge =  0 Multiplicity = 1

 SCF Done:  E(RB3LYP) =  -1008.69578823     A.U. after   13 cycles
 SCF Done:  E(RB3LYP) =  -1008.69870644     A.U. after   12 cycles
 SCF Done:  E(RB3LYP) =  -1008.70015288     A.U. after   11 cycles
 SCF Done:  E(RB3LYP) =  -1008.70063822     A.U. after   10 cycles
 SCF Done:  E(RB3LYP) =  -1008.70093486     A.U. after   10 cycles
 SCF Done:  E(RB3LYP) =  -1008.70118611     A.U. after   10 cycles
 SCF Done:  E(RB3LYP) =  -1008.70133456     A.U. after   10 cycles
 SCF Done:  E(RB3LYP) =  -1008.70140886     A.U. after   10 cycles
 SCF Done:  E(RB3LYP) =  -1008.70151959     A.U. after    9 cycles
 SCF Done:  E(RB3LYP) =  -1008.70203508     A.U. after   11 cycles
 SCF Done:  E(RB3LYP) =  -1008.70473618     A.U. after    7 cycles
 SCF Done:  E(RB3LYP) =  -1008.70473678     A.U. after    7 cycles
 SCF Done:  E(RB3LYP) =  -1008.70473741     A.U. after    7 cycles
 SCF Done:  E(RB3LYP) =  -1008.70473852     A.U. after    7 cycles
 SCF Done:  E(RB3LYP) =  -1008.70473893     A.U. after    7 cycles
 SCF Done:  E(RB3LYP) =  -1008.70473913     A.U. after    7 cycles
 Optimization completed.
    -- Stationary point found.
 Normal termination of Gaussian 16 at Sat Feb 29 10:01:50 2020.

 --------------------------------------------------------------
 #N Geom=AllCheck Guess=TCheck SCRF=Check Test B3LYP/CBSB7 Freq
 --------------------------------------------------------------

 Structure from the checkpoint file:  "c2c1im_cso3.chk"
 ---------------
 c2c1im_cso3.gjf
 ---------------
 Charge =  0 Multiplicity = 1

 SCF Done:  E(RB3LYP) =  -1008.70473913     A.U. after    1 cycles

  Exact polarizability:     131.712       0.078     131.708      -8.145      -1.066      89.089
 Approx polarizability:     169.104      -1.203     191.813     -15.809      -3.922     145.485

                      1                      2                      3
                      A                      A                      A
 Frequencies --     25.5584                37.1597                46.8061
 Red. masses --      6.4108                 6.0395                 5.1889
 Frc consts  --      0.0025                 0.0049                 0.0067
 IR Inten    --      4.9568                 3.9891                 8.6727

                      4                      5                      6
                      A                      A                      A
 Frequencies --     73.3152                96.4343               105.8732
 Red. masses --      3.0313                 3.4241                 3.2935
 Frc consts  --      0.0096                 0.0188                 0.0218
 IR Inten    --      3.2227                 2.0738                 6.7815

                      7                      8                      9
                      A                      A                      A
 Frequencies --    132.1078               138.9985               176.8917
 Red. masses --      1.5707                 1.7917                 4.5302
 Frc consts  --      0.0162                 0.0204                 0.0835
 IR Inten    --      6.8131                 9.7291                16.7273

                     10                     11                     12
                      A                      A                      A
 Frequencies --    184.8177               232.7949               241.3845
 Red. masses --      1.0463                 1.5149                 2.6095
 Frc consts  --      0.0211                 0.0484                 0.0896
 IR Inten    --      0.0339                 0.9295                 1.5018

                     13                     14                     15
                      A                      A                      A
 Frequencies --    303.0753               319.5933               327.3625
 Red. masses --      1.7888                 4.0811                 4.3922
 Frc consts  --      0.0968                 0.2456                 0.2773
 IR Inten    --      1.5893                 2.3797                 1.9273

                     16                     17                     18
                      A                      A                      A
 Frequencies --    389.1866               435.4021               504.0426
 Red. masses --      3.0537                 2.8341                 9.6035
 Frc consts  --      0.2725                 0.3166                 1.4375
 IR Inten    --      2.4170                 2.6343                14.2141

                     19                     20                     21
                      A                      A                      A
 Frequencies --    509.7191               530.1236               600.8036
 Red. masses --     10.0500                 6.4789                 3.7048
 Frc consts  --      1.5384                 1.0728                 0.7879
 IR Inten    --     16.0670                73.5121                 0.2313

                     22                     23                     24
                      A                      A                      A
 Frequencies --    641.4457               677.2930               704.8513
 Red. masses --      3.5772                 3.5318                 3.9766
 Frc consts  --      0.8672                 0.9545                 1.1640
 IR Inten    --      4.8913                53.7060                10.7238

                     25                     26                     27
                      A                      A                      A
 Frequencies --    734.1933               744.5072               819.7567
 Red. masses --      1.3724                 5.3293                 1.1505
 Frc consts  --      0.4359                 1.7404                 0.4555
 IR Inten    --     27.1048                91.7116                 6.6569

                     28                     29                     30
                      A                      A                      A
 Frequencies --    847.0560               960.3003               962.5809
 Red. masses --      1.3624                 1.4247                 2.2372
 Frc consts  --      0.5760                 0.7741                 1.2213
 IR Inten    --      0.0909                 3.1033                11.1979

                     31                     32                     33
                      A                      A                      A
 Frequencies --    965.0011               983.9450              1011.4782
 Red. masses --      1.3830                 1.4744                 4.8760
 Frc consts  --      0.7588                 0.8410                 2.9392
 IR Inten    --      1.7205               155.5822               145.7939

                     34                     35                     36
                      A                      A                      A
 Frequencies --   1033.1692              1048.1566              1107.5653
 Red. masses --      3.7700                 3.1211                 1.7827
 Frc consts  --      2.3710                 2.0203                 1.2885
 IR Inten    --      1.1827                 2.2184                 2.2384

                     37                     38                     39
                      A                      A                      A
 Frequencies --   1112.8964              1113.4570              1142.8722
 Red. masses --      1.2619                 1.5952                 5.4603
 Frc consts  --      0.9208                 1.1652                 4.2021
 IR Inten    --     12.9800                31.2666               114.0533

                     40                     41                     42
                      A                      A                      A
 Frequencies --   1150.0170              1162.6071              1193.3680
 Red. masses --      1.6420                 1.3332                 2.0171
 Frc consts  --      1.2795                 1.0618                 1.6925
 IR Inten    --      4.3550                21.3051               136.9682

                     43                     44                     45
                      A                      A                      A
 Frequencies --   1209.1783              1285.7903              1318.5418
 Red. masses --      9.5908                 1.3389                 1.3989
 Frc consts  --      8.2620                 1.3042                 1.4329
 IR Inten    --    299.1082                14.9538                 3.8223

                     46                     47                     48
                      A                      A                      A
 Frequencies --   1338.6998              1348.3549              1383.6045
 Red. masses --      1.2336                 4.5094                 1.7930
 Frc consts  --      1.3025                 4.8303                 2.0223
 IR Inten    --     13.0659                 6.3378                 4.6770

                     49                     50                     51
                      A                      A                      A
 Frequencies --   1411.3565              1432.2239              1454.7057
 Red. masses --      1.9403                 1.2472                 2.4217
 Frc consts  --      2.2772                 1.5073                 3.0194
 IR Inten    --      5.7691                 9.0378                 7.4902

                     52                     53                     54
                      A                      A                      A
 Frequencies --   1461.3953              1462.1734              1463.3090
 Red. masses --      1.1243                 1.0803                 1.1242
 Frc consts  --      1.4147                 1.3608                 1.4183
 IR Inten    --      7.7760                 3.5554                 2.6859

                     55                     56                     57
                      A                      A                      A
 Frequencies --   1492.8253              1501.8331              1503.1457
 Red. masses --      1.0505                 1.1223                 1.1332
 Frc consts  --      1.3793                 1.4914                 1.5086
 IR Inten    --      3.1758                11.1874                10.3099

                     58                     59                     60
                      A                      A                      A
 Frequencies --   1514.0356              1518.5426              1592.3280
 Red. masses --      1.0715                 1.0609                 3.6592
 Frc consts  --      1.4471                 1.4414                 5.4664
 IR Inten    --     10.0542                 6.5909                51.9376

                     61                     62                     63
                      A                      A                      A
 Frequencies --   1602.9575              3025.0117              3042.9982
 Red. masses --      3.7209                 1.0354                 1.0325
 Frc consts  --      5.6331                 5.5824                 5.6331
 IR Inten    --     21.4764                41.9228                54.7175

                     64                     65                     66
                      A                      A                      A
 Frequencies --   3055.9441              3058.6368              3095.3413
 Red. masses --      1.0287                 1.0647                 1.1018
 Frc consts  --      5.6601                 5.8684                 6.2197
 IR Inten    --     10.1238                31.8599                14.0295

                     67                     68                     69
                      A                      A                      A
 Frequencies --   3103.5130              3111.0919              3127.5777
 Red. masses --      1.1137                 1.1026                 1.1081
 Frc consts  --      6.3201                 6.2880                 6.3860
 IR Inten    --    369.8355                12.2599                42.9766

                     70                     71                     72
                      A                      A                      A
 Frequencies --   3132.4154              3144.7136              3152.4882
 Red. masses --      1.1051                 1.1048                 1.1059
 Frc consts  --      6.3885                 6.4373                 6.4755
 IR Inten    --      7.1309                21.4284                 8.1510

                     73                     74                     75
                      A                      A                      A
 Frequencies --   3153.1094              3276.0347              3294.8223
 Red. masses --      1.1061                 1.0920                 1.1090
 Frc consts  --      6.4792                 6.9054                 7.0930
 IR Inten    --      8.5030                 5.0288                 1.3609

 - Thermochemistry -
 -------------------
 Temperature   298.150 Kelvin.  Pressure   1.00000 Atm.
 Atom     1 has atomic number  6 and mass  12.00000

 Molecular mass:   206.07251 amu.
 Principal axes and moments of inertia in atomic units:
                           1         2         3
     Eigenvalues --  1783.635843486.127694682.27810
           X            0.99994  -0.00820  -0.00729
           Y            0.00822   0.99996   0.00293
           Z            0.00727  -0.00299   0.99997
 This molecule is an asymmetric top.
 Rotational symmetry number  1.
 Warning -- assumption of classical behavior for rotation
           may cause significant error
 Rotational temperatures (Kelvin)      0.04856     0.02485     0.01850
 Rotational constants (GHZ):           1.01183     0.51769     0.38544
 Zero-point vibrational energy     577776.4 (Joules/Mol)
                                  138.09187 (Kcal/Mol)
 Warning -- explicit consideration of  21 degrees of freedom as
           vibrations may cause significant error
 Vibrational temperatures:     36.77    53.46    67.34   105.48   138.75
          (Kelvin)            152.33   190.07   199.99   254.51   265.91
                              334.94   347.30   436.06   459.82   471.00
                              559.95   626.45   725.20   733.37   762.73
                              864.42   922.90   974.47  1014.12  1056.34
                             1071.18  1179.45  1218.72  1381.66  1384.94
                             1388.42  1415.68  1455.29  1486.50  1508.06
                             1593.54  1601.21  1602.02  1644.34  1654.62
                             1672.73  1716.99  1739.74  1849.97  1897.09
                             1926.09  1939.98  1990.70  2030.63  2060.65
                             2093.00  2102.62  2103.74  2105.38  2147.84
                             2160.80  2162.69  2178.36  2184.84  2291.00
                             2306.30  4352.32  4378.20  4396.82  4400.70
                             4453.51  4465.26  4476.17  4499.89  4506.85
                             4524.54  4535.73  4536.62  4713.48  4740.51

 Zero-point correction=                           0.220063 (Hartree/Particle)
 Thermal correction to Energy=                    0.235118
 Thermal correction to Enthalpy=                  0.236062
 Thermal correction to Gibbs Free Energy=         0.175962
 Sum of electronic and zero-point Energies=          -1008.484676
 Sum of electronic and thermal Energies=             -1008.469621
 Sum of electronic and thermal Enthalpies=           -1008.468677
 Sum of electronic and thermal Free Energies=        -1008.528777

                     E (Thermal)             CV                S
                      KCal/Mol        Cal/Mol-Kelvin    Cal/Mol-Kelvin
 Total                  147.539             53.046            126.492
 Electronic               0.000              0.000              0.000
 Translational            0.889              2.981             41.873
 Rotational               0.889              2.981             31.743
 Vibrational            145.762             47.085             52.876
 Vibration     1          0.593              1.985              6.147
 Vibration     2          0.594              1.982              5.405
 Vibration     3          0.595              1.979              4.948
 Vibration     4          0.599              1.967              4.062
 Vibration     5          0.603              1.952              3.525
 Vibration     6          0.605              1.945              3.343
 Vibration     7          0.612              1.921              2.915
 Vibration     8          0.615              1.914              2.818
 Vibration     9          0.628              1.871              2.361
 Vibration    10          0.631              1.861              2.279
 Vibration    11          0.654              1.791              1.857
 Vibration    12          0.658              1.777              1.793
 Vibration    13          0.695              1.668              1.400
 Vibration    14          0.706              1.636              1.312
 Vibration    15          0.711              1.621              1.273
 Vibration    16          0.757              1.493              1.003
 Vibration    17          0.796              1.393              0.841
 Vibration    18          0.859              1.241              0.648
 Vibration    19          0.865              1.228              0.634
 Vibration    20          0.885              1.183              0.587
 Vibration    21          0.959              1.030              0.448

                           ! Non-Optimized Parameters !
 Normal termination of Gaussian 16 at Sat Feb 29 10:06:47 2020.

 ----------------------------------------------------------------
 #N Geom=AllCheck Guess=TCheck SCRF=Check Test CCSD(T)/6-31+G(d')
 ----------------------------------------------------------------

 Structure from the checkpoint file:  "c2c1im_cso3.chk"
 ---------------
 c2c1im_cso3.gjf
 ---------------
 Charge =  0 Multiplicity = 1

 SCF Done:  E(RHF) =  -1004.15167665     A.U. after   14 cycles
 E2 =    -0.1968929803D+01 EUMP2 =    -0.10061206064548D+04
 CCSD(T)= -0.10062687150D+04
 MP4DQ=-1006.1701134\MP4SDQ=-1006.1962734\CCSD=-1006.1933079\CCSD(T)=-1
 Normal termination of Gaussian 16 at Sat Feb 29 12:32:17 2020.

 ----------------------------------------------------------
 #N Geom=AllCheck Guess=TCheck SCRF=Check Test MP4SDQ/CBSB4
 ----------------------------------------------------------

 Structure from the checkpoint file:  "c2c1im_cso3.chk"
 ---------------
 c2c1im_cso3.gjf
 ---------------
 Charge =  0 Multiplicity = 1

 SCF Done:  E(RHF) =  -1004.21032436     A.U. after   11 cycles
 E2 =    -0.2087135841D+01 EUMP2 =    -0.10062974601984D+04
 Normal termination of Gaussian 16 at Sat Feb 29 12:36:33 2020.

 ----------------------------------------------------------------------
 #N Geom=AllCheck Guess=TCheck SCRF=Check Test MP2/CBSB3 CBSExtrap=(NMi
 n=10,MinPop)
 ----------------------------------------------------------------------

 Structure from the checkpoint file:  "c2c1im_cso3.chk"
 ---------------
 c2c1im_cso3.gjf
 ---------------
 Charge =  0 Multiplicity = 1

                         Standard orientation:
 ---------------------------------------------------------------------
 Center     Atomic      Atomic             Coordinates (Angstroms)
 Number     Number       Type             X           Y           Z
 ---------------------------------------------------------------------
      1          6           0       -0.916546    2.826899    0.520659
      2          6           0       -1.370161    2.066280   -0.722046
      3          7           0       -1.855283    0.707064   -0.388747
      4          6           0       -2.985564    0.378959    0.338104
      5          6           0       -2.958371   -0.967857    0.527408
      6          7           0       -1.809267   -1.439533   -0.081352
      7          6           0       -1.162930   -0.408210   -0.630686
      8          6           0       -1.290937   -2.812980   -0.063626
      9          6           0        3.792831   -0.234534   -0.078839
     10         16           0        2.010602   -0.077768    0.092156
     11          8           0        1.777587    0.866945    1.187475
     12          8           0        1.534342    0.427556   -1.223218
     13          8           0        1.506396   -1.441728    0.356214
     14          1           0       -0.078643    2.306752    0.990798
     15          1           0       -1.729821    2.951270    1.241068
     16          1           0       -0.579056    3.821628    0.219551
     17          1           0       -0.527013    1.922944   -1.397302
     18          1           0       -2.176197    2.577721   -1.253480
     19          1           0       -3.697401    1.118329    0.660146
     20          1           0       -3.642814   -1.620216    1.040745
     21          1           0       -0.192314   -0.420670   -1.121781
     22          1           0       -1.645165   -3.361384   -0.937722
     23          1           0       -1.639269   -3.301604    0.844993
     24          1           0       -0.201770   -2.746450   -0.047437
     25          1           0        3.999988   -0.926403   -0.894248
     26          1           0        4.193866   -0.615023    0.860072
     27          1           0        4.201287    0.751150   -0.298814
 ---------------------------------------------------------------------

 SCF Done:  E(RHF) =  -1004.44093296     A.U. after   12 cycles
 E2 =    -0.2472755768D+01 EUMP2 =    -0.10069136887274D+04
 E2(CBS)=      -2.718124 CBS-Int=       0.080202 OIii=      20.394973

 The electronic state is 1-A.
 Alpha  occ. eigenvalues --  -92.11946 -20.48274 -20.48131 -20.47761 -15.67180
 Alpha  occ. eigenvalues --  -15.66879 -11.35433 -11.31335 -11.31123 -11.29297
 Alpha  occ. eigenvalues --  -11.28930 -11.22097 -11.21424  -9.08456  -6.77104
 Alpha  occ. eigenvalues --   -6.77083  -6.77063  -1.42165  -1.41032  -1.27804
 Alpha  occ. eigenvalues --   -1.26457  -1.26189  -1.09485  -1.05325  -0.99574
 Alpha  occ. eigenvalues --   -0.97047  -0.90468  -0.86307  -0.83933  -0.76211
 Alpha  occ. eigenvalues --   -0.75067  -0.69784  -0.67715  -0.66224  -0.65136
 Alpha  occ. eigenvalues --   -0.64523  -0.62310  -0.61994  -0.60955  -0.60831
 Alpha  occ. eigenvalues --   -0.60312  -0.57884  -0.55223  -0.54760  -0.54616
 Alpha  occ. eigenvalues --   -0.53413  -0.51497  -0.47148  -0.46941  -0.44707
 Alpha  occ. eigenvalues --   -0.42314  -0.41947  -0.40249  -0.38249  -0.37805
 Alpha virt. eigenvalues --    0.02311   0.03546   0.04243   0.05567   0.05832
 Alpha virt. eigenvalues --    0.06460   0.06620   0.08196   0.08701   0.09186
 Alpha virt. eigenvalues --    0.09434   0.09833   0.10588   0.11200   0.11438

 Mulliken charges:
               1
     1  C   -0.346644
     2  C    0.022933
     3  N    0.184280
     4  C   -0.197636
     5  C   -0.152412
     6  N    0.184603
     7  C   -0.315688
     8  C   -0.136986
     9  C   -0.044182
    10  S    0.559043
    11  O   -0.517167
    12  O   -0.613636
    13  O   -0.537222
    14  H    0.183920
    15  H    0.053284
    16  H    0.061200
    17  H    0.124896
    18  H    0.090512
    19  H    0.169042
    20  H    0.180324
    21  H    0.447833
    22  H    0.095339
    23  H    0.070725
    24  H    0.199925
    25  H    0.073473
    26  H    0.078916
    27  H    0.081325
 Sum of Mulliken charges =  -0.00000

 Dipole moment (field-independent basis, Debye):
    X=             -8.5031    Y=             -1.1667    Z=             -1.3003  Tot=              8.6807
 Quadrupole moment (field-independent basis, Debye-Ang):
   XX=            -69.6896   YY=            -75.9523   ZZ=            -91.9491
   XY=              0.7407   XZ=             -4.2650   YZ=             -1.5758

 Normal termination of Gaussian 16 at Sat Feb 29 13:08:01 2020.
