 Gaussian 16, Revision C.01,
 Gaussian 16:  ES64L-G16RevC.01  3-Jul-2019

 ------------------------------------------------------------------
 #wb97xd/def2svp/w06 opt(tight) freq temperature=365.1 scale=0.9788
 ------------------------------------------------------------------

 ----------
 c1c2im_bf4
 ----------
 Symbolic Z-matrix:
 Charge =  0 Multiplicity = 1

 SCF Done:  E(RwB97XD) =  -768.425594010     A.U. after   14 cycles
 SCF Done:  E(RwB97XD) =  -768.426128309     A.U. after   14 cycles
 SCF Done:  E(RwB97XD) =  -768.428327150     A.U. after   12 cycles
 SCF Done:  E(RwB97XD) =  -768.427120935     A.U. after   12 cycles
 SCF Done:  E(RwB97XD) =  -768.428270261     A.U. after   12 cycles
 SCF Done:  E(RwB97XD) =  -768.428767999     A.U. after    9 cycles
 SCF Done:  E(RwB97XD) =  -768.428868971     A.U. after   10 cycles
 SCF Done:  E(RwB97XD) =  -768.428894424     A.U. after   10 cycles
 SCF Done:  E(RwB97XD) =  -768.428906278     A.U. after    8 cycles
 SCF Done:  E(RwB97XD) =  -768.428917132     A.U. after    9 cycles
 SCF Done:  E(RwB97XD) =  -768.430087543     A.U. after    7 cycles
 SCF Done:  E(RwB97XD) =  -768.430087550     A.U. after    6 cycles
 SCF Done:  E(RwB97XD) =  -768.430087559     A.U. after    5 cycles
 SCF Done:  E(RwB97XD) =  -768.430087561     A.U. after    5 cycles
 SCF Done:  E(RwB97XD) =  -768.430087563     A.U. after    5 cycles
 SCF Done:  E(RwB97XD) =  -768.430087563     A.U. after    4 cycles
 SCF Done:  E(RwB97XD) =  -768.430087562     A.U. after    3 cycles
 SCF Done:  E(RwB97XD) =  -768.430087562     A.U. after    4 cycles
 SCF Done:  E(RwB97XD) =  -768.430087562     A.U. after    4 cycles
 Optimization completed.
    -- Stationary point found.
 Normal termination of Gaussian 16 at Fri Mar  6 18:36:10 2020.

 ----------------------------------------------------------------------
 #N Geom=AllCheck Guess=TCheck SCRF=Check Test GenChk RwB97XD/def2SVP/W
 06 Freq
 ----------------------------------------------------------------------

 Structure from the checkpoint file:  "c1c2cim_bf4.chk"
 ----------
 c1c2im_bf4
 ----------
 Charge =  0 Multiplicity = 1

                         Standard orientation:
 ---------------------------------------------------------------------
 Center     Atomic      Atomic             Coordinates (Angstroms)
 Number     Number       Type             X           Y           Z
 ---------------------------------------------------------------------
      1          5           0        2.079884    0.084940    0.097948
      2          9           0        3.362090   -0.052374    0.546300
      3          9           0        1.895282    1.319877   -0.594532
      4          9           0        1.142214    0.052630    1.158550
      5          9           0        1.725170   -0.948962   -0.811325
      6          6           0       -0.566472   -2.742352    0.545560
      7          6           0       -1.117503   -2.073565   -0.702638
      8          7           0       -1.550041   -0.700763   -0.415403
      9          6           0       -2.633126   -0.329244    0.352334
     10          6           0       -2.538632    1.014197    0.549046
     11          7           0       -1.395877    1.434831   -0.097142
     12          6           0       -0.818706    0.380054   -0.664690
     13          6           0       -0.813196    2.770444   -0.074506
     14          1           0        0.251649   -2.130504    0.948043
     15          1           0       -0.173538   -3.734643    0.285424
     16          1           0       -1.342920   -2.869285    1.315039
     17          1           0       -1.976713   -2.610469   -1.130617
     18          1           0       -0.330184   -1.996663   -1.461602
     19          1           0       -3.371035   -1.046896    0.697635
     20          1           0       -3.179940    1.699484    1.094764
     21          1           0        0.130670    0.393666   -1.198051
     22          1           0        0.259458    2.665992   -0.283554
     23          1           0       -0.942539    3.194009    0.928391
     24          1           0       -1.299886    3.414402   -0.818980
 ---------------------------------------------------------------------

 SCF Done:  E(RwB97XD) =  -768.430087562     A.U. after    1 cycles

 The electronic state is 1-A.
 Alpha  occ. eigenvalues --  -24.72620 -24.72420 -24.72354 -24.70918 -14.56709
 Alpha  occ. eigenvalues --  -14.56346 -10.41965 -10.38743 -10.38661 -10.37137
 Alpha  occ. eigenvalues --  -10.36971 -10.30505  -6.91713  -1.23188  -1.20302
 Alpha  occ. eigenvalues --   -1.17425  -1.17322  -1.17215  -1.08091  -0.93171
 Alpha  occ. eigenvalues --   -0.89665  -0.84749  -0.78128  -0.74966  -0.72853
 Alpha  occ. eigenvalues --   -0.66998  -0.62775  -0.60149  -0.59576  -0.58844
 Alpha  occ. eigenvalues --   -0.58594  -0.57637  -0.55484  -0.54779  -0.53989
 Alpha  occ. eigenvalues --   -0.53514  -0.52938  -0.51425  -0.49854  -0.47775
 Alpha  occ. eigenvalues --   -0.46101  -0.45228  -0.44660  -0.43055  -0.42487
 Alpha  occ. eigenvalues --   -0.42360  -0.41578  -0.39768  -0.39499  -0.39402
 Alpha  occ. eigenvalues --   -0.37393
 Alpha virt. eigenvalues --    0.03781   0.05101   0.11587   0.12943   0.14325
 Alpha virt. eigenvalues --    0.16489   0.17658   0.18293   0.18566   0.19493
 Alpha virt. eigenvalues --    0.20685   0.21847   0.22920   0.23972   0.25217

 Mulliken charges:
               1
     1  B    0.354200
     2  F   -0.213619
     3  F   -0.306458
     4  F   -0.301139
     5  F   -0.311666
     6  C   -0.079653
     7  C    0.048677
     8  N   -0.232594
     9  C    0.061887
    10  C    0.067707
    11  N   -0.245828
    12  C    0.217070
    13  C    0.057231
    14  H    0.098234
    15  H    0.061267
    16  H    0.033182
    17  H    0.056434
    18  H    0.089991
    19  H    0.074588
    20  H    0.072767
    21  H    0.130206
    22  H    0.118383
    23  H    0.074312
    24  H    0.074821
 Sum of Mulliken charges =  -0.00000

 Dipole moment (field-independent basis, Debye):
    X=            -11.4903    Y=              0.8319    Z=             -0.8501  Tot=             11.5517
 Quadrupole moment (field-independent basis, Debye-Ang):
   XX=            -81.7168   YY=            -59.6513   ZZ=            -75.0637
   XY=             -1.7057   XZ=             -3.4135   YZ=              1.6860

  Exact polarizability:      86.592       0.035     103.482      -7.083       2.195      66.733
 Approx polarizability:      91.950       1.771     105.116      -9.706       3.703      78.597

                      1                      2                      3
                      A                      A                      A
 Frequencies --     39.6826                55.3627                93.1132
 Red. masses --      7.7612                 5.2445                 8.3604
 Frc consts  --      0.0072                 0.0095                 0.0427
 IR Inten    --      1.1351                 3.0237                 2.2552

                      4                      5                      6
                      A                      A                      A
 Frequencies --    100.1338               103.9985               126.3156
 Red. masses --      5.8370                 4.5018                 2.7771
 Frc consts  --      0.0345                 0.0287                 0.0261
 IR Inten    --      3.7175                 7.9333                 1.3976

                      7                      8                      9
                      A                      A                      A
 Frequencies --    135.4017               145.4725               194.0852
 Red. masses --      1.8523                 1.6786                 4.4626
 Frc consts  --      0.0200                 0.0209                 0.0990
 IR Inten    --      5.1717                 7.7963                12.8523

                     10                     11                     12
                      A                      A                      A
 Frequencies --    230.4249               258.3813               316.0854
 Red. masses --      1.2111                 3.5509                 1.9632
 Frc consts  --      0.0379                 0.1397                 0.1156
 IR Inten    --      0.4574                 2.7875                 1.6761

                     13                     14                     15
                      A                      A                      A
 Frequencies --    357.2192               361.2877               412.1154
 Red. masses --     18.5098                17.8477                 3.0287
 Frc consts  --      1.3916                 1.3726                 0.3031
 IR Inten    --      0.0346                 0.2883                 2.8085

                     16                     17                     18
                      A                      A                      A
 Frequencies --    446.1959               515.0197               517.4413
 Red. masses --      2.7124                17.9585                17.9447
 Frc consts  --      0.3182                 2.8065                 2.8308
 IR Inten    --      1.3306                 1.7904                 4.3172

                     19                     20                     21
                      A                      A                      A
 Frequencies --    527.5819               622.7713               655.7692
 Red. masses --     17.6676                 3.6607                 3.2741
 Frc consts  --      2.8974                 0.8365                 0.8295
 IR Inten    --     22.6206                 0.5031                 5.8827

                     22                     23                     24
                      A                      A                      A
 Frequencies --    698.8853               727.8750               754.7375
 Red. masses --      3.0100                 3.7741                 1.3797
 Frc consts  --      0.8662                 1.1781                 0.4630
 IR Inten    --     59.4002                 8.0481                17.7964

                     25                     26                     27
                      A                      A                      A
 Frequencies --    755.3228               812.4247               884.0321
 Red. masses --     13.8797                 1.1471                 1.4038
 Frc consts  --      4.6655                 0.4461                 0.6464
 IR Inten    --     13.4633                10.2178                 0.0925

                     28                     29                     30
                      A                      A                      A
 Frequencies --    978.1301               983.9348              1008.8460
 Red. masses --      1.7483                 1.6375                 5.0991
 Frc consts  --      0.9855                 0.9340                 3.0577
 IR Inten    --     42.1577                79.0364               209.2724

                     31                     32                     33
                      A                      A                      A
 Frequencies --   1048.6993              1063.9861              1068.8567
 Red. masses --      4.6301                 2.9005                 2.5592
 Frc consts  --      3.0002                 1.9346                 1.7226
 IR Inten    --    127.8616                71.3838                75.8071

                     34                     35                     36
                      A                      A                      A
 Frequencies --   1110.6917              1124.2134              1128.4871
 Red. masses --      1.3190                 1.9466                 1.5407
 Frc consts  --      0.9587                 1.4495                 1.1560
 IR Inten    --     14.7816                 9.8408                21.5008

                     37                     38                     39
                      A                      A                      A
 Frequencies --   1146.0520              1161.1082              1204.7721
 Red. masses --      1.6135                 1.3433                 1.8507
 Frc consts  --      1.2486                 1.0670                 1.5827
 IR Inten    --      5.9050                 3.9622               155.7957

                     40                     41                     42
                      A                      A                      A
 Frequencies --   1241.1537              1270.0949              1316.9131
 Red. masses --     10.0310                 1.3071                 1.2741
 Frc consts  --      9.1043                 1.2423                 1.3018
 IR Inten    --    516.9374                 5.6573                 0.8859

                     43                     44                     45
                      A                      A                      A
 Frequencies --   1378.6297              1405.9734              1423.9444
 Red. masses --      1.3071                 4.7467                 1.3928
 Frc consts  --      1.4637                 5.5283                 1.6639
 IR Inten    --     11.0116                 9.1410                15.5438

                     46                     47                     48
                      A                      A                      A
 Frequencies --   1439.5582              1457.8537              1472.7254
 Red. masses --      1.7562                 1.2144                 1.0555
 Frc consts  --      2.1443                 1.5207                 1.3488
 IR Inten    --      2.6699                 6.6174                 5.7704

                     49                     50                     51
                      A                      A                      A
 Frequencies --   1478.4753              1491.4942              1493.5837
 Red. masses --      1.2088                 1.1937                 1.0450
 Frc consts  --      1.5568                 1.5645                 1.3735
 IR Inten    --     11.8709                 6.8971                17.2566

                     52                     53                     54
                      A                      A                      A
 Frequencies --   1500.2596              1524.2135              1647.6486
 Red. masses --      1.4774                 2.7611                 4.9131
 Frc consts  --      1.9592                 3.7794                 7.8584
 IR Inten    --      3.2910                14.4707                11.2950

                     55                     56                     57
                      A                      A                      A
 Frequencies --   1658.2301              3063.8435              3074.4206
 Red. masses --      5.0817                 1.0378                 1.0336
 Frc consts  --      8.2329                 5.7396                 5.7558
 IR Inten    --     78.9005                20.9657                34.9060

                     58                     59                     60
                      A                      A                      A
 Frequencies --   3101.3679              3163.9958              3190.9772
 Red. masses --      1.0659                 1.1035                 1.1044
 Frc consts  --      6.0404                 6.5085                 6.6256
 IR Inten    --     25.1902                12.4137                 1.5013

                     61                     62                     63
                      A                      A                      A
 Frequencies --   3193.1866              3199.1438              3205.8459
 Red. masses --      1.1094                 1.1067                 1.1088
 Frc consts  --      6.6649                 6.6734                 6.7144
 IR Inten    --      7.8368                 1.1725                16.2328

                     64                     65                     66
                      A                      A                      A
 Frequencies --   3289.5232              3302.4071              3321.6370
 Red. masses --      1.1073                 1.0934                 1.1128
 Frc consts  --      7.0597                 7.0258                 7.2342
 IR Inten    --    158.0183                 8.5350                 2.4201

 - Thermochemistry -
 -------------------
 Temperature   365.100 Kelvin.  Pressure   1.00000 Atm.
 Thermochemistry will use frequencies scaled by 0.9788.

 Molecular mass:   198.09514 amu.
 Principal axes and moments of inertia in atomic units:
                           1         2         3
     Eigenvalues --  1751.414022785.479583937.61989
           X            0.99996   0.00221  -0.00904
           Y           -0.00224   0.99999  -0.00292
           Z            0.00904   0.00294   0.99995
 This molecule is an asymmetric top.
 Rotational symmetry number  1.
 Warning -- assumption of classical behavior for rotation
           may cause significant error
 Rotational temperatures (Kelvin)      0.04945     0.03109     0.02200
 Rotational constants (GHZ):           1.03045     0.64791     0.45833
 Zero-point vibrational energy     481136.6 (Joules/Mol)
                                  114.99440 (Kcal/Mol)
 Warning -- explicit consideration of  25 degrees of freedom as
           vibrations may cause significant error
 Vibrational temperatures:     55.88    77.97   131.13   141.02   146.46
          (Kelvin)            177.89   190.68   204.87   273.33   324.50
                              363.87   445.14   503.06   508.79   580.37
                              628.37   725.29   728.70   742.98   877.03
                              923.50   984.22  1025.05  1062.88  1063.70
                             1144.12  1244.96  1377.48  1385.65  1420.73
                             1476.86  1498.38  1505.24  1564.16  1583.20
                             1589.22  1613.96  1635.16  1696.65  1747.89
                             1788.64  1854.58  1941.49  1980.00  2005.31
                             2027.29  2053.06  2074.00  2082.10  2100.43
                             2103.38  2112.78  2146.51  2320.34  2335.24
                             4314.73  4329.63  4367.58  4455.78  4493.77
                             4496.88  4505.27  4514.71  4632.55  4650.70
                             4677.78

 Zero-point correction=                           0.183255 (Hartree/Particle)
 Thermal correction to Energy=                    0.203109
 Thermal correction to Enthalpy=                  0.204265
 Thermal correction to Gibbs Free Energy=         0.128333
 Sum of electronic and zero-point Energies=           -768.246832
 Sum of electronic and thermal Energies=              -768.226978
 Sum of electronic and thermal Enthalpies=            -768.225822
 Sum of electronic and thermal Free Energies=         -768.301755

                     E (Thermal)             CV                S
                      KCal/Mol        Cal/Mol-Kelvin    Cal/Mol-Kelvin
 Total                  127.453             58.777            130.508
 Electronic               0.000              0.000              0.000
 Translational            1.088              2.981             42.762
 Rotational               1.088              2.981             31.934
 Vibrational            125.276             52.816             55.812
 Vibration     1          0.727              1.983              5.719
 Vibration     2          0.728              1.980              5.059
 Vibration     3          0.733              1.966              4.033
 Vibration     4          0.735              1.963              3.890
 Vibration     5          0.735              1.961              3.816
 Vibration     6          0.740              1.948              3.436
 Vibration     7          0.742              1.943              3.300
 Vibration     8          0.744              1.936              3.161
 Vibration     9          0.759              1.897              2.608
 Vibration    10          0.773              1.861              2.286
 Vibration    11          0.785              1.831              2.074
 Vibration    12          0.813              1.758              1.712
 Vibration    13          0.837              1.701              1.500
 Vibration    14          0.839              1.695              1.481
 Vibration    15          0.872              1.617              1.263
 Vibration    16          0.896              1.562              1.137
 Vibration    17          0.950              1.445              0.921
 Vibration    18          0.952              1.441              0.914
 Vibration    19          0.960              1.423              0.886
 Vibration    20          1.045              1.255              0.664
 Vibration    21          1.077              1.196              0.600
 Vibration    22          1.119              1.121              0.527
 Vibration    23          1.149              1.071              0.482
 Vibration    24          1.178              1.025              0.444
 Vibration    25          1.178              1.024              0.443

 Optimization completed.
    -- Stationary point found.
 Normal termination of Gaussian 16 at Fri Mar  6 18:38:59 2020.
