 Gaussian 16, Revision C.01,
 Gaussian 16:  ES64L-G16RevC.01  3-Jul-2019

 ---
 #G2
 ---
 1/18=20,19=15,38=1/1,3;
 2/9=110,12=2,17=6,18=5,40=1/2;
 3/5=1,6=6,7=1,11=9,25=1,30=1,71=1/1,2,3;
 4//1;
 5/5=2,38=5/2;

 ------
 carbon
 ------
 Symbolic Z-matrix:
 Charge =  0 Multiplicity = 3

 SCF Done:  E(UHF) =  -37.6808603247     A.U. after    8 cycles
 SCF Done:  E(UHF) =  -37.6808603247     A.U. after    1 cycles
 Optimization completed.
    -- Stationary point found.
 Normal termination of Gaussian 16 at Tue Feb 25 15:45:37 2020.

 --------------------------------------------------------------
 #N Geom=AllCheck Guess=TCheck SCRF=Check Test HF/6-31G(d) Freq
 --------------------------------------------------------------

 Structure from the checkpoint file:  "carbon.chk"
 ------
 carbon
 ------
 Charge =  0 Multiplicity = 3

 SCF Done:  E(UHF) =  -37.6808603247     A.U. after    1 cycles

  Exact polarizability:       7.900       0.000       7.386       0.000       0.000       7.386
 Approx polarizability:       5.729      -0.000       4.020      -0.000      -0.000       4.020

 - Thermochemistry -
 -------------------
 Temperature   298.150 Kelvin.  Pressure   1.00000 Atm.
 Atom     1 has atomic number  6 and mass  12.00000
 Molecular mass:    12.00000 amu.
 Zero-point vibrational energy          0.0 (Joules/Mol)
                                    0.00000 (Kcal/Mol)
 Vibrational temperatures:
          (Kelvin)

 Zero-point correction=                           0.000000 (Hartree/Particle)
 Thermal correction to Energy=                    0.001416
 Thermal correction to Enthalpy=                  0.002360
 Thermal correction to Gibbs Free Energy=        -0.014545
 Sum of electronic and zero-point Energies=            -37.680860
 Sum of electronic and thermal Energies=               -37.679444
 Sum of electronic and thermal Enthalpies=             -37.678500
 Sum of electronic and thermal Free Energies=          -37.695406

                     E (Thermal)             CV                S
                      KCal/Mol        Cal/Mol-Kelvin    Cal/Mol-Kelvin
 Total                    0.889              2.981             35.581
 Electronic               0.000              0.000              2.183
 Translational            0.889              2.981             33.398
 Rotational               0.000              0.000              0.000
 Vibrational              0.000              0.000              0.000

 Optimization completed.
    -- Stationary point found.
 Normal termination of Gaussian 16 at Tue Feb 25 15:45:40 2020.

 ----------------------------------------------------------------------
 #N Geom=AllCheck Guess=TCheck SCRF=Check Test MP2(Full)/6-31G(d) Opt=R
 CFC
 ----------------------------------------------------------------------

 Structure from the checkpoint file:  "carbon.chk"
 ------
 carbon
 ------
 Charge =  0 Multiplicity = 3

 SCF Done:  E(UHF) =  -37.6808603247     A.U. after    1 cycles
 E2 =    -0.5564572936D-01 EUMP2 =    -0.37736506054050D+02
 SCF Done:  E(UHF) =  -37.6808603247     A.U. after    1 cycles
 E2 =    -0.5564572936D-01 EUMP2 =    -0.37736506054050D+02
 Optimization completed.
    -- Stationary point found.
 Normal termination of Gaussian 16 at Tue Feb 25 15:45:45 2020.

 ----------------------------------------------------------------------
 #N Geom=AllCheck Guess=TCheck SCRF=Check Test QCISD(T,E4T)/6-311G(d,p)
 ----------------------------------------------------------------------

 Structure from the checkpoint file:  "carbon.chk"
 ------
 carbon
 ------
 Charge =  0 Multiplicity = 3

 SCF Done:  E(UHF) =  -37.6890490294     A.U. after    8 cycles
 E2 =    -0.5597419234D-01 EUMP2 =    -0.37745023221709D+02
 Normal termination of Gaussian 16 at Tue Feb 25 15:45:46 2020.

 --------------------------------------------------------------
 #N Geom=AllCheck Guess=TCheck SCRF=Check Test MP4/6-311+G(d,p)
 --------------------------------------------------------------

 Structure from the checkpoint file:  "carbon.chk"
 ------
 carbon
 ------
 Charge =  0 Multiplicity = 3

 SCF Done:  E(UHF) =  -37.6895699085     A.U. after    7 cycles
 E2 =    -0.5630367983D-01 EUMP2 =    -0.37745873588359D+02
 Normal termination of Gaussian 16 at Tue Feb 25 15:45:47 2020.

 ---------------------------------------------------------------
 #N Geom=AllCheck Guess=TCheck SCRF=Check Test MP4/6-311G(2df,p)
 ---------------------------------------------------------------

 Structure from the checkpoint file:  "carbon.chk"
 ------
 carbon
 ------
 Charge =  0 Multiplicity = 3

 SCF Done:  E(UHF) =  -37.6896818547     A.U. after    8 cycles
 E2 =    -0.6550272762D-01 EUMP2 =    -0.37755184582316D+02
 Normal termination of Gaussian 16 at Tue Feb 25 15:45:51 2020.

                         Standard orientation:
 ---------------------------------------------------------------------
 Center     Atomic      Atomic             Coordinates (Angstroms)
 Number     Number       Type             X           Y           Z
 ---------------------------------------------------------------------
      1          6           0        0.000000    0.000000    0.000000
 ---------------------------------------------------------------------

 SCF Done:  E(UHF) =  -37.6902525074     A.U. after    7 cycles
 E2 =    -0.6659828189D-01 EUMP2 =    -0.37756850789315D+02

 Unable to determine electronic state:  an orbital has unidentified symmetry.
 Alpha  occ. eigenvalues --  -11.34634  -0.82982  -0.43931  -0.43931
 Alpha virt. eigenvalues --    0.01852   0.09877   0.12169   0.12169   0.15418
 Alpha virt. eigenvalues --    0.44998   0.44998   0.45567   0.45567   0.45835
 Alpha virt. eigenvalues --    0.67547   0.67547   0.73170   0.80190   1.78117

  Beta  occ. eigenvalues --  -11.30003  -0.58430
  Beta virt. eigenvalues --    0.04097   0.07130   0.07130   0.11184   0.17255
  Beta virt. eigenvalues --    0.21125   0.21125   0.47654   0.48271   0.48271
  Beta virt. eigenvalues --    0.50221   0.50221   0.75720   0.80443   0.80443

 Mulliken charges and spin densities:
               1          2
     1  C   -0.000000   2.000000
 Sum of Mulliken charges =  -0.00000   2.00000

 Dipole moment (field-independent basis, Debye):
    X=              0.0000    Y=              0.0000    Z=              0.0000  Tot=              0.0000
 Quadrupole moment (field-independent basis, Debye-Ang):
   XX=             -4.8697   YY=             -6.8641   ZZ=             -6.8641
   XY=              0.0000   XZ=             -0.0000   YZ=             -0.0000

 Normal termination of Gaussian 16 at Tue Feb 25 15:46:16 2020.
