 Gaussian 16, Revision C.01,
 Gaussian 16:  ES64L-G16RevC.01  3-Jul-2019

 ----------------------------------------------------------
 #p pbepbe/def2tzvp/w06 opt scrf(cpcm,solvent=generic,read)
 ----------------------------------------------------------

 ------
 c1c2im
 ------
 Symbolic Z-matrix:
 Charge =  1 Multiplicity = 1

 SCF Done:  E(RPBE-PBE) =  -344.297497304     A.U. after   12 cycles
 SCF Done:  E(RPBE-PBE) =  -344.298755181     A.U. after    9 cycles
 SCF Done:  E(RPBE-PBE) =  -344.298903401     A.U. after    8 cycles
 SCF Done:  E(RPBE-PBE) =  -344.298930604     A.U. after    8 cycles
 SCF Done:  E(RPBE-PBE) =  -344.298944846     A.U. after    8 cycles
 SCF Done:  E(RPBE-PBE) =  -344.298973752     A.U. after    9 cycles
 SCF Done:  E(RPBE-PBE) =  -344.298965528     A.U. after    9 cycles
 SCF Done:  E(RPBE-PBE) =  -344.299009082     A.U. after    9 cycles
 SCF Done:  E(RPBE-PBE) =  -344.298927635     A.U. after    9 cycles
 SCF Done:  E(RPBE-PBE) =  -344.298982963     A.U. after   10 cycles
 SCF Done:  E(RPBE-PBE) =  -344.299347130     A.U. after   10 cycles
 SCF Done:  E(RPBE-PBE) =  -344.297563240     A.U. after   12 cycles
 SCF Done:  E(RPBE-PBE) =  -344.299488122     A.U. after    9 cycles
 SCF Done:  E(RPBE-PBE) =  -344.299535824     A.U. after    9 cycles
 SCF Done:  E(RPBE-PBE) =  -344.299623546     A.U. after    9 cycles
 SCF Done:  E(RPBE-PBE) =  -344.299633033     A.U. after    8 cycles
 SCF Done:  E(RPBE-PBE) =  -344.299636038     A.U. after    7 cycles
 SCF Done:  E(RPBE-PBE) =  -344.299637451     A.U. after    7 cycles
 SCF Done:  E(RPBE-PBE) =  -344.299637153     A.U. after    7 cycles
 SCF Done:  E(RPBE-PBE) =  -344.299637445     A.U. after    6 cycles
 Optimization completed.
    -- Stationary point found.

                         Standard orientation:
 ---------------------------------------------------------------------
 Center     Atomic      Atomic             Coordinates (Angstroms)
 Number     Number       Type             X           Y           Z
 ---------------------------------------------------------------------
      1          6           0        2.867694   -0.284735    0.704796
      2          6           0        2.028786   -0.335183   -0.565587
      3          7           0        0.624350    0.041339   -0.324237
      4          6           0        0.149513    1.323384   -0.125123
      5          6           0       -1.194385    1.223671    0.102199
      6          7           0       -1.517045   -0.118087    0.040996
      7          6           0       -0.401509   -0.815414   -0.217007
      8          6           0       -2.853879   -0.685427    0.214384
      9          1           0        3.898883   -0.573123    0.461298
     10          1           0        2.482669   -0.981608    1.461088
     11          1           0        2.889004    0.726429    1.132575
     12          1           0        2.015297   -1.344182   -0.995474
     13          1           0        2.417040    0.349910   -1.330354
     14          1           0        0.796238    2.191150   -0.168541
     15          1           0       -1.940022    1.985605    0.292893
     16          1           0       -0.339982   -1.892046   -0.324116
     17          1           0       -3.236312   -0.418931    1.206048
     18          1           0       -2.789983   -1.773625    0.125127
     19          1           0       -3.521297   -0.290117   -0.559829
 ---------------------------------------------------------------------

 The electronic state is 1-A.
 Alpha  occ. eigenvalues --  -14.09906 -14.09590  -9.99386  -9.95279  -9.95218
 Alpha  occ. eigenvalues --   -9.95051  -9.94339  -9.89164  -1.00599  -0.89620
 Alpha  occ. eigenvalues --   -0.75381  -0.72418  -0.68165  -0.61875  -0.59159
 Alpha  occ. eigenvalues --   -0.56949  -0.51804  -0.47164  -0.45394  -0.44524
 Alpha  occ. eigenvalues --   -0.43739  -0.42433  -0.41082  -0.40345  -0.37914
 Alpha  occ. eigenvalues --   -0.36420  -0.34891  -0.32882  -0.29021  -0.25792
 Alpha virt. eigenvalues --   -0.06999  -0.04261   0.01436   0.02242   0.03315
 Alpha virt. eigenvalues --    0.04129   0.05075   0.05987   0.06418   0.07760
 Alpha virt. eigenvalues --    0.08185   0.08981   0.09624   0.09635   0.10453

 Mulliken charges:
               1
     1  C   -0.365037
     2  C   -0.155867
     3  N    0.092834
     4  C   -0.098916
     5  C   -0.090985
     6  N    0.082589
     7  C    0.000133
     8  C   -0.308113
     9  H    0.143855
    10  H    0.138025
    11  H    0.140858
    12  H    0.154718
    13  H    0.155827
    14  H    0.190717
    15  H    0.187541
    16  H    0.215756
    17  H    0.172925
    18  H    0.170267
    19  H    0.172873
 Sum of Mulliken charges =   1.00000

 Dipole moment (field-independent basis, Debye):
    X=             -1.7804    Y=             -0.8081    Z=             -0.5062  Tot=              2.0196
 Quadrupole moment (field-independent basis, Debye-Ang):
   XX=            -23.7667   YY=            -36.2839   ZZ=            -47.2805
   XY=              1.1116   XZ=             -2.8214   YZ=              0.8221

 Normal termination of Gaussian 16 at Tue Mar 10 15:34:25 2020.
