 Gaussian 16, Revision C.01,
 Gaussian 16:  ES64L-G16RevC.01  3-Jul-2019

 ----------------------------------------------------------
 #p pbepbe/def2tzvp/w06 opt scrf(cpcm,solvent=generic,read)
 ----------------------------------------------------------

 ----
 ncn2
 ----
 Symbolic Z-matrix:
 Charge = -1 Multiplicity = 1

 SCF Done:  E(RPBE-PBE) =  -240.384374255     A.U. after   12 cycles
 SCF Done:  E(RPBE-PBE) =  -240.403712418     A.U. after   12 cycles
 SCF Done:  E(RPBE-PBE) =  -240.399737084     A.U. after   12 cycles
 SCF Done:  E(RPBE-PBE) =  -240.411015454     A.U. after   11 cycles
 SCF Done:  E(RPBE-PBE) =  -240.412042115     A.U. after   12 cycles
 SCF Done:  E(RPBE-PBE) =  -240.412431262     A.U. after   11 cycles
 SCF Done:  E(RPBE-PBE) =  -240.412447901     A.U. after   10 cycles
 SCF Done:  E(RPBE-PBE) =  -240.412448440     A.U. after    8 cycles
 Optimization completed.
    -- Stationary point found.

                         Standard orientation:
 ---------------------------------------------------------------------
 Center     Atomic      Atomic             Coordinates (Angstroms)
 Number     Number       Type             X           Y           Z
 ---------------------------------------------------------------------
      1          6           0       -1.155905    0.053317    0.000002
      2          7           0       -2.258510   -0.375258   -0.000001
      3          7           0       -0.000031    0.659077   -0.000000
      4          6           0        1.155935    0.053385   -0.000000
      5          7           0        2.258516   -0.375278    0.000000
 ---------------------------------------------------------------------

 The electronic state is 1-A.
 Alpha  occ. eigenvalues --  -13.99481 -13.94514 -13.94513  -9.92728  -9.92726
 Alpha  occ. eigenvalues --   -0.86829  -0.79383  -0.76908  -0.57188  -0.37125
 Alpha  occ. eigenvalues --   -0.36391  -0.30733  -0.30387  -0.28516  -0.27645
 Alpha  occ. eigenvalues --   -0.22108  -0.19239
 Alpha virt. eigenvalues --    0.01700   0.02134   0.02185   0.04756   0.09497
 Alpha virt. eigenvalues --    0.10525   0.15314   0.18342   0.21055   0.21373
 Alpha virt. eigenvalues --    0.25244   0.26910   0.28638   0.32108   0.33297

 Mulliken charges:
               1
     1  C   -0.126921
     2  N   -0.225978
     3  N   -0.294236
     4  C   -0.126890
     5  N   -0.225975
 Sum of Mulliken charges =  -1.00000

 Dipole moment (field-independent basis, Debye):
    X=              0.0004    Y=              1.2296    Z=              0.0000  Tot=              1.2296
 Quadrupole moment (field-independent basis, Debye-Ang):
   XX=            -59.1839   YY=            -32.0843   ZZ=            -29.8438
   XY=             -0.0000   XZ=             -0.0000   YZ=              0.0000

 Normal termination of Gaussian 16 at Tue Mar 10 14:51:48 2020.
