 Gaussian 16, Revision C.01,
 Gaussian 16:  ES64L-G16RevC.01  3-Jul-2019

 ------------------------------------------------------------------
 #wb97xd/def2svp/w06 opt(tight) freq temperature=360.6 scale=0.9788
 ------------------------------------------------------------------

 -----------
 c1c2im_ccn3
 -----------
 Symbolic Z-matrix:
 Charge =  0 Multiplicity = 1

 SCF Done:  E(RwB97XD) =  -660.656729374     A.U. after   16 cycles
 SCF Done:  E(RwB97XD) =  -660.654099387     A.U. after   17 cycles
 SCF Done:  E(RwB97XD) =  -660.662475975     A.U. after   16 cycles
 SCF Done:  E(RwB97XD) =  -660.661224903     A.U. after   17 cycles
 SCF Done:  E(RwB97XD) =  -660.664229224     A.U. after   15 cycles
 SCF Done:  E(RwB97XD) =  -660.663998493     A.U. after   15 cycles
 SCF Done:  E(RwB97XD) =  -660.664573598     A.U. after   14 cycles
 SCF Done:  E(RwB97XD) =  -660.664750704     A.U. after   14 cycles
 SCF Done:  E(RwB97XD) =  -660.664827808     A.U. after   13 cycles
 SCF Done:  E(RwB97XD) =  -660.664862830     A.U. after   12 cycles
 SCF Done:  E(RwB97XD) =  -660.664950827     A.U. after    6 cycles
 SCF Done:  E(RwB97XD) =  -660.664950844     A.U. after    6 cycles
 SCF Done:  E(RwB97XD) =  -660.664950873     A.U. after    6 cycles
 SCF Done:  E(RwB97XD) =  -660.664950863     A.U. after    7 cycles
 SCF Done:  E(RwB97XD) =  -660.664950917     A.U. after    7 cycles
 SCF Done:  E(RwB97XD) =  -660.664950931     A.U. after    5 cycles
 SCF Done:  E(RwB97XD) =  -660.664950939     A.U. after    5 cycles
 SCF Done:  E(RwB97XD) =  -660.664950937     A.U. after    5 cycles
 SCF Done:  E(RwB97XD) =  -660.664950940     A.U. after    4 cycles
 Optimization completed.
    -- Stationary point found.
 Normal termination of Gaussian 16 at Fri Mar  6 14:49:46 2020.

 ----------------------------------------------------------------------
 #N Geom=AllCheck Guess=TCheck SCRF=Check Test GenChk RwB97XD/def2SVP/W
 06 Freq
 ----------------------------------------------------------------------

 Structure from the checkpoint file:  "c1c2im_ccn3.chk"
 -----------
 c1c2im_ccn3
 -----------
 Charge =  0 Multiplicity = 1

                         Standard orientation:
 ---------------------------------------------------------------------
 Center     Atomic      Atomic             Coordinates (Angstroms)
 Number     Number       Type             X           Y           Z
 ---------------------------------------------------------------------
      1          6           0        2.942548    0.728026    0.561757
      2          6           0        2.822432   -0.655639   -0.053803
      3          7           0        1.436740   -1.020148   -0.374066
      4          6           0        0.793194   -0.815776   -1.575078
      5          6           0       -0.490865   -1.237430   -1.415676
      6          7           0       -0.610001   -1.683685   -0.118170
      7          6           0        0.564160   -1.535507    0.489293
      8          6           0       -1.832715   -2.161460    0.516858
      9          6           0       -2.287803    1.093933   -0.209453
     10          6           0       -1.052213    1.539801    0.310991
     11          6           0       -0.628779    1.047305    1.563394
     12          7           0       -0.254769    0.557987    2.555517
     13          6           0       -0.116624    2.173656   -0.539365
     14          7           0        0.686749    2.636160   -1.244893
     15          7           0       -3.274242    0.644929   -0.639119
     16          1           0        2.588136    1.501389   -0.133336
     17          1           0        3.996947    0.922857    0.803074
     18          1           0        2.352449    0.797728    1.487151
     19          1           0        3.208042   -1.433211    0.620926
     20          1           0        3.388944   -0.731836   -0.991937
     21          1           0        1.285147   -0.341545   -2.418559
     22          1           0       -1.344091   -1.198927   -2.086399
     23          1           0        0.758861   -1.736167    1.539655
     24          1           0       -1.937434   -3.244966    0.372817
     25          1           0       -2.681230   -1.625543    0.072926
     26          1           0       -1.787134   -1.917938    1.585290
 ---------------------------------------------------------------------

 SCF Done:  E(RwB97XD) =  -660.664950940     A.U. after    1 cycles

 The electronic state is 1-A.
 Alpha  occ. eigenvalues --  -14.58005 -14.57899 -14.42106 -14.41603 -14.41334
 Alpha  occ. eigenvalues --  -10.43951 -10.39180 -10.38989 -10.38855 -10.37926
 Alpha  occ. eigenvalues --  -10.33152 -10.32571 -10.32352 -10.32279 -10.31542
 Alpha  occ. eigenvalues --   -1.21478  -1.09335  -0.98650  -0.96985  -0.96547
 Alpha  occ. eigenvalues --   -0.94216  -0.90811  -0.86534  -0.85977  -0.78803
 Alpha  occ. eigenvalues --   -0.76642  -0.73736  -0.68277  -0.64964  -0.64848
 Alpha  occ. eigenvalues --   -0.63741  -0.60939  -0.60391  -0.59150  -0.57935
 Alpha  occ. eigenvalues --   -0.56828  -0.55476  -0.52569  -0.51263  -0.49265
 Alpha  occ. eigenvalues --   -0.47566  -0.46891  -0.43999  -0.43355  -0.43141
 Alpha  occ. eigenvalues --   -0.42893  -0.41865  -0.40718  -0.40502  -0.40240
 Alpha  occ. eigenvalues --   -0.39041  -0.37458  -0.26634
 Alpha virt. eigenvalues --    0.01501   0.05278   0.09262   0.10157   0.10902
 Alpha virt. eigenvalues --    0.11999   0.12639   0.13296   0.13762   0.14614
 Alpha virt. eigenvalues --    0.17084   0.17374   0.18082   0.18558   0.18841

 Mulliken charges:
               1
     1  C   -0.077026
     2  C    0.040389
     3  N   -0.239485
     4  C    0.084240
     5  C    0.085925
     6  N   -0.244287
     7  C    0.236601
     8  C    0.053919
     9  C   -0.069494
    10  C   -0.521989
    11  C   -0.062551
    12  N   -0.073080
    13  C   -0.055157
    14  N   -0.039840
    15  N   -0.042296
    16  H    0.084571
    17  H    0.059355
    18  H    0.071703
    19  H    0.063628
    20  H    0.067808
    21  H    0.090841
    22  H    0.095656
    23  H    0.112078
    24  H    0.082644
    25  H    0.104075
    26  H    0.091771
 Sum of Mulliken charges =  -0.00000

 Dipole moment (field-independent basis, Debye):
    X=              5.2595    Y=             -9.3450    Z=             -1.2073  Tot=             10.7911
 Quadrupole moment (field-independent basis, Debye-Ang):
   XX=            -89.1459   YY=            -90.4164   ZZ=            -94.7197
   XY=              2.5077   XZ=             -1.4392   YZ=              1.9203

  Exact polarizability:     141.889      16.557     101.823       4.776     -11.602     117.346
 Approx polarizability:     164.356      22.047     114.732       7.463     -20.943     154.924

                      1                      2                      3
                      A                      A                      A
 Frequencies --     36.0329                39.7545                52.7848
 Red. masses --      3.5739                 5.1167                 4.4561
 Frc consts  --      0.0027                 0.0048                 0.0073
 IR Inten    --      0.5302                 3.1650                 5.4639

                      4                      5                      6
                      A                      A                      A
 Frequencies --     79.6148                90.1579               106.6438
 Red. masses --      6.1912                 4.6284                 4.6159
 Frc consts  --      0.0231                 0.0222                 0.0309
 IR Inten    --      5.8439                 6.6569                 0.2677

                      7                      8                      9
                      A                      A                      A
 Frequencies --    124.9954               146.7695               149.0247
 Red. masses --      2.3184                12.8730                 8.1964
 Frc consts  --      0.0213                 0.1634                 0.1072
 IR Inten    --     13.1050                 7.4260                 5.6205

                     10                     11                     12
                      A                      A                      A
 Frequencies --    164.4846               178.2348               189.5297
 Red. masses --      3.1999                 7.2342                 1.9049
 Frc consts  --      0.0510                 0.1354                 0.0403
 IR Inten    --      2.7621                15.9797                 4.2662

                     13                     14                     15
                      A                      A                      A
 Frequencies --    248.0842               268.2721               310.7452
 Red. masses --      1.4050                 3.0803                 1.6309
 Frc consts  --      0.0509                 0.1306                 0.0928
 IR Inten    --      2.4570                 3.0672                 0.0483

                     16                     17                     18
                      A                      A                      A
 Frequencies --    407.7649               419.6695               435.3878
 Red. masses --      3.4071                11.6049                 2.4438
 Frc consts  --      0.3338                 1.2042                 0.2729
 IR Inten    --      0.8882                 0.0447                 0.1627

                     19                     20                     21
                      A                      A                      A
 Frequencies --    506.7801               513.2106               616.6721
 Red. masses --     12.2379                12.2077                 3.6687
 Frc consts  --      1.8518                 1.8944                 0.8220
 IR Inten    --      1.5678                 2.2653                 0.7188

                     22                     23                     24
                      A                      A                      A
 Frequencies --    627.3264               634.2312               640.8016
 Red. masses --     11.8199                10.9119                 7.6718
 Frc consts  --      2.7406                 2.5861                 1.8561
 IR Inten    --      3.8483                 7.4324                41.4393

                     25                     26                     27
                      A                      A                      A
 Frequencies --    644.2811               667.2276               680.2978
 Red. masses --      3.4585                 2.4666                12.8501
 Frc consts  --      0.8459                 0.6470                 3.5039
 IR Inten    --      1.8145                36.2936                 4.6757

                     28                     29                     30
                      A                      A                      A
 Frequencies --    728.2512               745.0497               812.5344
 Red. masses --      3.6263                 1.2638                 1.1547
 Frc consts  --      1.1331                 0.4133                 0.4492
 IR Inten    --      4.2655                39.0512                 1.7193

                     31                     32                     33
                      A                      A                      A
 Frequencies --    845.0504               882.1562               982.3014
 Red. masses --      1.6119                 1.4260                 2.1772
 Frc consts  --      0.6782                 0.6538                 1.2378
 IR Inten    --     28.6096                 3.6614                 4.2725

                     34                     35                     36
                      A                      A                      A
 Frequencies --   1056.6138              1065.9652              1111.8096
 Red. masses --      2.8173                 2.6329                 1.2471
 Frc consts  --      1.8532                 1.7626                 0.9082
 IR Inten    --      1.1102                 2.7236                 9.7809

                     37                     38                     39
                      A                      A                      A
 Frequencies --   1126.2573              1131.1527              1142.1929
 Red. masses --      1.9917                 1.4613                 1.5765
 Frc consts  --      1.4885                 1.1016                 1.2118
 IR Inten    --      7.3856                 2.9984                 2.3346

                     40                     41                     42
                      A                      A                      A
 Frequencies --   1157.6741              1210.1447              1273.6701
 Red. masses --      1.3402                 1.7557                 1.2871
 Frc consts  --      1.0582                 1.5149                 1.2302
 IR Inten    --      7.1416                79.1431                 1.3751

                     43                     44                     45
                      A                      A                      A
 Frequencies --   1286.5266              1290.2980              1318.2496
 Red. masses --     12.2268                12.1807                 1.2955
 Frc consts  --     11.9234                11.9482                 1.3264
 IR Inten    --     10.9180                 9.2753                 0.1813

                     46                     47                     48
                      A                      A                      A
 Frequencies --   1383.7478              1409.5080              1428.4443
 Red. masses --      1.2829                 4.8749                 1.3038
 Frc consts  --      1.4473                 5.7062                 1.5675
 IR Inten    --      7.3044                 7.2179                20.3007

                     49                     50                     51
                      A                      A                      A
 Frequencies --   1444.1350              1452.8768              1474.3820
 Red. masses --      1.8385                 1.2078                 1.0405
 Frc consts  --      2.2590                 1.5021                 1.3326
 IR Inten    --      9.4813                 5.0017                13.6057

                     52                     53                     54
                      A                      A                      A
 Frequencies --   1482.9957              1485.9065              1491.9342
 Red. masses --      1.0817                 1.4806                 1.6064
 Frc consts  --      1.4017                 1.9261                 2.1068
 IR Inten    --     15.5643                 9.2560                 8.2446

                     55                     56                     57
                      A                      A                      A
 Frequencies --   1500.7759              1512.4281              1644.8875
 Red. masses --      1.0824                 2.0202                 4.7498
 Frc consts  --      1.4364                 2.7227                 7.5717
 IR Inten    --     14.8255                10.5271                14.9427

                     58                     59                     60
                      A                      A                      A
 Frequencies --   1661.5921              2297.7176              2317.1237
 Red. masses --      4.8538                12.6339                12.6305
 Frc consts  --      7.8955                39.2991                39.9548
 IR Inten    --     74.7374               303.0661               303.2573

                     61                     62                     63
                      A                      A                      A
 Frequencies --   2359.0670              3066.7030              3076.8694
 Red. masses --     12.6659                 1.0370                 1.0335
 Frc consts  --     41.5304                 5.7458                 5.7648
 IR Inten    --      9.8120                15.2361                23.2264

                     64                     65                     66
                      A                      A                      A
 Frequencies --   3099.3895              3159.3585              3174.1074
 Red. masses --      1.0626                 1.1085                 1.1053
 Frc consts  --      6.0144                 6.5193                 6.5611
 IR Inten    --     17.7931                 3.5903                 4.7564

                     67                     68                     69
                      A                      A                      A
 Frequencies --   3186.9662              3195.1568              3206.8768
 Red. masses --      1.1066                 1.1093                 1.1086
 Frc consts  --      6.6223                 6.6727                 6.7174
 IR Inten    --      1.2476                 1.3483                 7.3429

                     70                     71                     72
                      A                      A                      A
 Frequencies --   3306.6969              3312.1727              3325.0850
 Red. masses --      1.0947                 1.1036                 1.1134
 Frc consts  --      7.0526                 7.1332                 7.2529
 IR Inten    --     16.2831                32.9654                 8.7801

 - Thermochemistry -
 -------------------
 Temperature   360.600 Kelvin.  Pressure   1.00000 Atm.
 Thermochemistry will use frequencies scaled by 0.9788.

 Molecular mass:   201.10145 amu.
 Principal axes and moments of inertia in atomic units:
                           1         2         3
     Eigenvalues --  2362.853892983.006273640.02332
           X            0.99582   0.09116   0.00549
           Y           -0.09110   0.99578  -0.01122
           Z           -0.00649   0.01067   0.99992
 This molecule is an asymmetric top.
 Rotational symmetry number  1.
 Warning -- assumption of classical behavior for rotation
           may cause significant error
 Rotational temperatures (Kelvin)      0.03666     0.02904     0.02379
 Rotational constants (GHZ):           0.76380     0.60501     0.49580
 Zero-point vibrational energy     524574.6 (Joules/Mol)
                                  125.37634 (Kcal/Mol)
 Warning -- explicit consideration of  29 degrees of freedom as
           vibrations may cause significant error
 Vibrational temperatures:     50.74    55.99    74.34   112.12   126.97
          (Kelvin)            150.18   176.03   206.69   209.87   231.64
                              251.00   266.91   349.37   377.80   437.61
                              574.25   591.01   613.15   713.69   722.74
                              868.44   883.45   893.17   902.42   907.32
                              939.64   958.05  1025.58  1049.23  1144.27
                             1190.06  1242.32  1383.35  1488.00  1501.17
                             1565.73  1586.08  1592.97  1608.52  1630.32
                             1704.22  1793.68  1811.78  1817.09  1856.46
                             1948.70  1984.97  2011.64  2033.74  2046.05
                             2076.34  2088.47  2092.56  2101.05  2113.50
                             2129.91  2316.45  2339.98  3235.82  3263.15
                             3322.21  4318.76  4333.08  4364.79  4449.25
                             4470.02  4488.12  4499.66  4516.16  4656.74
                             4664.45  4682.63

 Zero-point correction=                           0.199800 (Hartree/Particle)
 Thermal correction to Energy=                    0.221761
 Thermal correction to Enthalpy=                  0.222902
 Thermal correction to Gibbs Free Energy=         0.141719
 Sum of electronic and zero-point Energies=           -660.465151
 Sum of electronic and thermal Energies=              -660.443190
 Sum of electronic and thermal Enthalpies=            -660.442048
 Sum of electronic and thermal Free Energies=         -660.523232

                     E (Thermal)             CV                S
                      KCal/Mol        Cal/Mol-Kelvin    Cal/Mol-Kelvin
 Total                  139.157             64.109            141.275
 Electronic               0.000              0.000              0.000
 Translational            1.075              2.981             42.745
 Rotational               1.075              2.981             32.184
 Vibrational            137.007             58.147             66.345
 Vibration     1          0.718              1.984              5.886
 Vibration     2          0.718              1.983              5.691
 Vibration     3          0.719              1.980              5.129
 Vibration     4          0.722              1.971              4.317
 Vibration     5          0.724              1.967              4.072
 Vibration     6          0.727              1.959              3.742
 Vibration     7          0.731              1.948              3.432
 Vibration     8          0.736              1.934              3.120
 Vibration     9          0.737              1.932              3.091
 Vibration    10          0.741              1.920              2.901
 Vibration    11          0.745              1.909              2.747
 Vibration    12          0.749              1.899              2.630
 Vibration    13          0.772              1.839              2.126
 Vibration    14          0.781              1.815              1.983
 Vibration    15          0.802              1.760              1.720
 Vibration    16          0.862              1.616              1.260
 Vibration    17          0.870              1.596              1.214
 Vibration    18          0.881              1.570              1.156
 Vibration    19          0.937              1.448              0.926
 Vibration    20          0.942              1.437              0.908
 Vibration    21          1.033              1.252              0.660
 Vibration    22          1.044              1.233              0.639
 Vibration    23          1.050              1.221              0.626
 Vibration    24          1.057              1.209              0.613
 Vibration    25          1.060              1.203              0.607
 Vibration    26          1.083              1.162              0.565
 Vibration    27          1.096              1.138              0.543
 Vibration    28          1.145              1.054              0.468
 Vibration    29          1.163              1.026              0.445

 Optimization completed.
    -- Stationary point found.
 Normal termination of Gaussian 16 at Fri Mar  6 14:54:04 2020.
