 Gaussian 16, Revision C.01,
 Gaussian 16:  ES64L-G16RevC.01  3-Jul-2019

 ----------------------------------------------------------
 #p pbepbe/def2tzvp/w06 opt scrf(cpcm,solvent=generic,read)
 ----------------------------------------------------------

 ----
 ccn3
 ----
 Symbolic Z-matrix:
 Charge = -1 Multiplicity = 1

 SCF Done:  E(RPBE-PBE) =  -316.479103181     A.U. after   13 cycles
 SCF Done:  E(RPBE-PBE) =  -316.530932323     A.U. after   11 cycles
 SCF Done:  E(RPBE-PBE) =  -316.537291981     A.U. after   11 cycles
 SCF Done:  E(RPBE-PBE) =  -316.537462681     A.U. after   10 cycles
 SCF Done:  E(RPBE-PBE) =  -316.537839049     A.U. after   10 cycles
 SCF Done:  E(RPBE-PBE) =  -316.537853948     A.U. after    9 cycles
 SCF Done:  E(RPBE-PBE) =  -316.537856637     A.U. after    8 cycles
 SCF Done:  E(RPBE-PBE) =  -316.537856937     A.U. after    8 cycles
 Optimization completed.
    -- Stationary point found.

                         Standard orientation:
 ---------------------------------------------------------------------
 Center     Atomic      Atomic             Coordinates (Angstroms)
 Number     Number       Type             X           Y           Z
 ---------------------------------------------------------------------
      1          6           0        1.407560   -0.006139   -0.000134
      2          6           0        0.000097   -0.000001   -0.000612
      3          6           0       -0.708996   -1.215804   -0.000135
      4          7           0       -1.300766   -2.230041    0.000290
      5          6           0       -0.698364    1.221940   -0.000135
      6          7           0       -1.281268    2.241299    0.000290
      7          7           0        2.581780   -0.011254    0.000290
 ---------------------------------------------------------------------

 The electronic state is 1-A.
 Alpha  occ. eigenvalues --  -13.97095 -13.97094 -13.97091  -9.93214  -9.92410
 Alpha  occ. eigenvalues --   -9.92408  -9.92406  -0.82826  -0.81183  -0.81181
 Alpha  occ. eigenvalues --   -0.72229  -0.52846  -0.52846  -0.36344  -0.32410
 Alpha  occ. eigenvalues --   -0.32410  -0.32269  -0.30089  -0.30087  -0.30075
 Alpha  occ. eigenvalues --   -0.30074  -0.29105  -0.18686
 Alpha virt. eigenvalues --   -0.03489  -0.03486   0.00128   0.00130   0.01816
 Alpha virt. eigenvalues --    0.05131   0.08869   0.08871   0.13225   0.16518
 Alpha virt. eigenvalues --    0.17961   0.18490   0.18491   0.22187   0.23953

 Mulliken charges:
               1
     1  C   -0.324642
     2  C    0.259679
     3  C   -0.324761
     4  N   -0.095173
     5  C   -0.324747
     6  N   -0.095175
     7  N   -0.095179
 Sum of Mulliken charges =  -1.00000

 Dipole moment (field-independent basis, Debye):
    X=              0.0022    Y=              0.0001    Z=             -0.0018  Tot=              0.0028
 Quadrupole moment (field-independent basis, Debye-Ang):
   XX=            -63.6902   YY=            -63.6842   ZZ=            -41.2481
   XY=              0.0001   XZ=             -0.0000   YZ=             -0.0000

 Normal termination of Gaussian 16 at Tue Mar 10 15:46:09 2020.
