 Gaussian 16, Revision C.01,
 Gaussian 16:  ES64L-G16RevC.01  3-Jul-2019

 --------
 #CBS-QB3
 --------

 -----------
 c2c1im_c4n3
 -----------
 Symbolic Z-matrix:
 Charge =  0 Multiplicity = 1

 SCF Done:  E(RB3LYP) =  -661.526162078     A.U. after   15 cycles
 SCF Done:  E(RB3LYP) =  -661.530485895     A.U. after   16 cycles
 SCF Done:  E(RB3LYP) =  -661.533221869     A.U. after   15 cycles
 SCF Done:  E(RB3LYP) =  -661.534599958     A.U. after   14 cycles
 SCF Done:  E(RB3LYP) =  -661.536254415     A.U. after   13 cycles
 SCF Done:  E(RB3LYP) =  -661.535964589     A.U. after   14 cycles
 SCF Done:  E(RB3LYP) =  -661.536878461     A.U. after   13 cycles
 SCF Done:  E(RB3LYP) =  -661.537171578     A.U. after   12 cycles
 SCF Done:  E(RB3LYP) =  -661.537323040     A.U. after   12 cycles
 SCF Done:  E(RB3LYP) =  -661.537373943     A.U. after   10 cycles
 SCF Done:  E(RB3LYP) =  -661.537553584     A.U. after    8 cycles
 SCF Done:  E(RB3LYP) =  -661.537553993     A.U. after    8 cycles
 SCF Done:  E(RB3LYP) =  -661.537554486     A.U. after    8 cycles
 SCF Done:  E(RB3LYP) =  -661.537554959     A.U. after    8 cycles
 SCF Done:  E(RB3LYP) =  -661.537555021     A.U. after    8 cycles
 SCF Done:  E(RB3LYP) =  -661.537555026     A.U. after    7 cycles
 Optimization completed.
    -- Stationary point found.
 Normal termination of Gaussian 16 at Sat Feb 29 05:14:47 2020.

 --------------------------------------------------------------
 #N Geom=AllCheck Guess=TCheck SCRF=Check Test B3LYP/CBSB7 Freq
 --------------------------------------------------------------

 Structure from the checkpoint file:  "c2c1im_c4n3.chk"
 -----------
 c2c1im_c4n3
 -----------
 Charge =  0 Multiplicity = 1

 SCF Done:  E(RB3LYP) =  -661.537555026     A.U. after    1 cycles

  Exact polarizability:     140.707      24.537     117.841       5.494      -8.890     125.162
 Approx polarizability:     219.381      49.611     176.153      16.002     -23.572     228.097

                      1                      2                      3
                      A                      A                      A
 Frequencies --     18.3250                35.0409                53.8969
 Red. masses --      7.8832                 5.7496                 2.9366
 Frc consts  --      0.0016                 0.0042                 0.0050
 IR Inten    --      1.4647                 4.1994                 2.7470

                      4                      5                      6
                      A                      A                      A
 Frequencies --     59.9345                68.1258                93.3389
 Red. masses --      3.5055                 7.1468                 5.6968
 Frc consts  --      0.0074                 0.0195                 0.0292
 IR Inten    --      3.8605                 6.8476                 1.5457

                      7                      8                      9
                      A                      A                      A
 Frequencies --    124.7935               143.9085               150.4793
 Red. masses --      3.3307                 4.4874                10.1787
 Frc consts  --      0.0306                 0.0548                 0.1358
 IR Inten    --     15.8712                 1.5419                 5.7901

                     10                     11                     12
                      A                      A                      A
 Frequencies --    152.6941               168.0459               173.2731
 Red. masses --      3.2978                 1.7628                 6.1900
 Frc consts  --      0.0453                 0.0293                 0.1095
 IR Inten    --      4.6593                 3.4211                21.6489

                     13                     14                     15
                      A                      A                      A
 Frequencies --    234.2990               249.8882               299.7201
 Red. masses --      1.3327                 3.2662                 1.6504
 Frc consts  --      0.0431                 0.1202                 0.0873
 IR Inten    --      0.9135                 2.0579                 0.1172

                     16                     17                     18
                      A                      A                      A
 Frequencies --    394.7241               420.1760               423.7959
 Red. masses --      3.4883                 2.5912                 9.7771
 Frc consts  --      0.3202                 0.2695                 1.0346
 IR Inten    --      0.2611                 0.0786                 0.0555

                     19                     20                     21
                      A                      A                      A
 Frequencies --    504.5262               511.1673               595.7186
 Red. masses --     12.3077                12.3337                 3.7299
 Frc consts  --      1.8458                 1.8988                 0.7799
 IR Inten    --      0.7854                 1.8899                 0.9903

                     22                     23                     24
                      A                      A                      A
 Frequencies --    617.7814               624.6040               627.1004
 Red. masses --     11.3331                12.0230                 2.7444
 Frc consts  --      2.5484                 2.7636                 0.6359
 IR Inten    --     38.1695                 4.3139                22.0071

                     25                     26                     27
                      A                      A                      A
 Frequencies --    638.1214               650.3048               662.3626
 Red. masses --     12.1236                 2.7849                12.9461
 Frc consts  --      2.9086                 0.6939                 3.3464
 IR Inten    --      2.1448                20.2661                 0.2426

                     28                     29                     30
                      A                      A                      A
 Frequencies --    705.9671               725.8510               803.5646
 Red. masses --      3.6603                 1.2786                 1.1727
 Frc consts  --      1.0748                 0.3969                 0.4462
 IR Inten    --      9.1741                35.2286                 5.6980

                     31                     32                     33
                      A                      A                      A
 Frequencies --    810.4357               851.6171               962.2399
 Red. masses --      1.5758                 1.3972                 2.3794
 Frc consts  --      0.6098                 0.5970                 1.2981
 IR Inten    --     45.0629                 1.6987                 3.7855

                     34                     35                     36
                      A                      A                      A
 Frequencies --   1038.3996              1043.9051              1109.0073
 Red. masses --      3.8719                 3.2436                 1.5823
 Frc consts  --      2.4598                 2.0826                 1.1466
 IR Inten    --      0.5686                 1.7540                 5.4133

                     37                     38                     39
                      A                      A                      A
 Frequencies --   1113.6007              1127.6376              1134.8219
 Red. masses --      1.5403                 1.3570                 1.6640
 Frc consts  --      1.1254                 1.0167                 1.2626
 IR Inten    --      3.1025                 7.6772                 6.5290

                     40                     41                     42
                      A                      A                      A
 Frequencies --   1160.6581              1185.9034              1249.9002
 Red. masses --      1.3316                 1.7217                12.2568
 Frc consts  --      1.0569                 1.4266                11.2818
 IR Inten    --     11.7747                77.3681                 8.4704

                     43                     44                     45
                      A                      A                      A
 Frequencies --   1259.1077              1272.0033              1314.9355
 Red. masses --     12.1376                 1.3692                 1.3844
 Frc consts  --     11.3373                 1.3052                 1.4103
 IR Inten    --      7.3947                 2.5720                 0.2123

                     46                     47                     48
                      A                      A                      A
 Frequencies --   1355.3580              1384.6971              1409.8771
 Red. masses --      4.9903                 1.3203                 2.8917
 Frc consts  --      5.4012                 1.4915                 3.3867
 IR Inten    --      9.2801                 9.6591                 3.1237

                     49                     50                     51
                      A                      A                      A
 Frequencies --   1434.4811              1445.1124              1460.6459
 Red. masses --      1.2268                 2.6100                 1.2865
 Frc consts  --      1.4873                 3.2113                 1.6172
 IR Inten    --      3.8567                 1.1285                 4.1018

                     52                     53                     54
                      A                      A                      A
 Frequencies --   1495.6023              1496.2670              1497.1291
 Red. masses --      1.0393                 1.0695                 1.1166
 Frc consts  --      1.3697                 1.4107                 1.4746
 IR Inten    --     12.9071                18.8943                10.3948

                     55                     56                     57
                      A                      A                      A
 Frequencies --   1512.7433              1515.1893              1596.6700
 Red. masses --      1.0974                 1.0801                 3.5415
 Frc consts  --      1.4797                 1.4609                 5.3195
 IR Inten    --     17.7756                13.2281                42.5982

                     58                     59                     60
                      A                      A                      A
 Frequencies --   1609.2950              2231.1715              2258.4023
 Red. masses --      3.8179                12.6279                12.6322
 Frc consts  --      5.8257                37.0381                37.9605
 IR Inten    --     30.8908               303.7119               289.0848

                     61                     62                     63
                      A                      A                      A
 Frequencies --   2301.3893              3043.3389              3056.9964
 Red. masses --     12.6603                 1.0355                 1.0326
 Frc consts  --     39.5071                 5.6506                 5.6856
 IR Inten    --     12.1280                12.4411                26.8960

                     64                     65                     66
                      A                      A                      A
 Frequencies --   3068.8526              3106.2406              3116.0712
 Red. masses --      1.0606                 1.1065                 1.1013
 Frc consts  --      5.8853                 6.2901                 6.3004
 IR Inten    --     18.8934                 3.2307                10.9675

                     67                     68                     69
                      A                      A                      A
 Frequencies --   3132.0618              3140.6280              3160.1305
 Red. masses --      1.1057                 1.1061                 1.1067
 Frc consts  --      6.3910                 6.4277                 6.5115
 IR Inten    --      7.5633                 1.6872                 3.2985

                     70                     71                     72
                      A                      A                      A
 Frequencies --   3282.8680              3285.4897              3301.2641
 Red. masses --      1.0934                 1.1015                 1.1101
 Frc consts  --      6.9425                 7.0052                 7.1282
 IR Inten    --     11.3680                28.9195                 5.8875

 - Thermochemistry -
 -------------------
 Temperature   298.150 Kelvin.  Pressure   1.00000 Atm.
 Atom     1 has atomic number  6 and mass  12.00000

 Molecular mass:   201.10145 amu.
 Principal axes and moments of inertia in atomic units:
                           1         2         3
     Eigenvalues --  2671.229432924.156433934.53686
           X            0.96188   0.27346  -0.00184
           Y           -0.27346   0.96187  -0.00448
           Z            0.00054   0.00481   0.99999
 This molecule is an asymmetric top.
 Rotational symmetry number  1.
 Warning -- assumption of classical behavior for rotation
           may cause significant error
 Rotational temperatures (Kelvin)      0.03242     0.02962     0.02201
 Rotational constants (GHZ):           0.67562     0.61718     0.45869
 Zero-point vibrational energy     527934.0 (Joules/Mol)
                                  126.17926 (Kcal/Mol)
 Warning -- explicit consideration of  22 degrees of freedom as
           vibrations may cause significant error
 Vibrational temperatures:     26.37    50.42    77.55    86.23    98.02
          (Kelvin)            134.29   179.55   207.05   216.51   219.69
                              241.78   249.30   337.10   359.53   431.23
                              567.92   604.54   609.75   725.90   735.46
                              857.11   888.85   898.67   902.26   918.11
                              935.64   952.99  1015.73  1044.34  1156.15
                             1166.04  1225.29  1384.45  1494.03  1501.95
                             1595.61  1602.22  1622.42  1632.76  1669.93
                             1706.25  1798.33  1811.58  1830.13  1891.90
                             1950.06  1992.27  2028.50  2063.90  2079.19
                             2101.54  2151.84  2152.79  2154.03  2176.50
                             2180.02  2297.25  2315.42  3210.16  3249.34
                             3311.19  4378.69  4398.34  4415.39  4469.19
                             4483.33  4506.34  4518.66  4546.72  4723.31
                             4727.09  4749.78

 Zero-point correction=                           0.201079 (Hartree/Particle)
 Thermal correction to Energy=                    0.217249
 Thermal correction to Enthalpy=                  0.218193
 Thermal correction to Gibbs Free Energy=         0.155164
 Sum of electronic and zero-point Energies=           -661.336476
 Sum of electronic and thermal Energies=              -661.320306
 Sum of electronic and thermal Enthalpies=            -661.319362
 Sum of electronic and thermal Free Energies=         -661.382391

                     E (Thermal)             CV                S
                      KCal/Mol        Cal/Mol-Kelvin    Cal/Mol-Kelvin
 Total                  136.326             55.763            132.656
 Electronic               0.000              0.000              0.000
 Translational            0.889              2.981             41.801
 Rotational               0.889              2.981             31.797
 Vibrational            134.548             49.802             59.058
 Vibration     1          0.593              1.986              6.808
 Vibration     2          0.594              1.982              5.521
 Vibration     3          0.596              1.976              4.669
 Vibration     4          0.597              1.973              4.459
 Vibration     5          0.598              1.969              4.207
 Vibration     6          0.602              1.954              3.589
 Vibration     7          0.610              1.928              3.025
 Vibration     8          0.616              1.909              2.751
 Vibration     9          0.618              1.902              2.666
 Vibration    10          0.619              1.900              2.638
 Vibration    11          0.625              1.882              2.457
 Vibration    12          0.627              1.875              2.400
 Vibration    13          0.654              1.788              1.846
 Vibration    14          0.663              1.763              1.731
 Vibration    15          0.692              1.674              1.418
 Vibration    16          0.762              1.481              0.982
 Vibration    17          0.783              1.426              0.891
 Vibration    18          0.786              1.418              0.879
 Vibration    19          0.860              1.240              0.647
 Vibration    20          0.866              1.225              0.631
 Vibration    21          0.953              1.041              0.457
 Vibration    22          0.978              0.994              0.420

                           ! Non-Optimized Parameters !
 Normal termination of Gaussian 16 at Sat Feb 29 05:20:32 2020.

 ----------------------------------------------------------------
 #N Geom=AllCheck Guess=TCheck SCRF=Check Test CCSD(T)/6-31+G(d')
 ----------------------------------------------------------------

 Structure from the checkpoint file:  "c2c1im_c4n3.chk"
 -----------
 c2c1im_c4n3
 -----------
 Charge =  0 Multiplicity = 1

 SCF Done:  E(RHF) =  -657.280778714     A.U. after   16 cycles
 E2 =    -0.2113414678D+01 EUMP2 =    -0.65939419339260D+03
 CCSD(T)= -0.65954951126D+03
 CCSD(T)=-659.5495113\RMSD=4.408e-09\PG=C01 [X(C10H11N5)]\\@
 Normal termination of Gaussian 16 at Sat Feb 29 08:47:33 2020.

 ----------------------------------------------------------
 #N Geom=AllCheck Guess=TCheck SCRF=Check Test MP4SDQ/CBSB4
 ----------------------------------------------------------

 Structure from the checkpoint file:  "c2c1im_c4n3.chk"
 -----------
 c2c1im_c4n3
 -----------
 Charge =  0 Multiplicity = 1

 SCF Done:  E(RHF) =  -657.297470731     A.U. after   12 cycles
 E2 =    -0.2180266856D+01 EUMP2 =    -0.65947773758744D+03
 Normal termination of Gaussian 16 at Sat Feb 29 08:54:03 2020.

 ----------------------------------------------------------------------
 #N Geom=AllCheck Guess=TCheck SCRF=Check Test MP2/CBSB3 CBSExtrap=(NMi
 n=10,MinPop)
 ----------------------------------------------------------------------

 Structure from the checkpoint file:  "c2c1im_c4n3.chk"
 -----------
 c2c1im_c4n3
 -----------
 Charge =  0 Multiplicity = 1

                         Standard orientation:
 ---------------------------------------------------------------------
 Center     Atomic      Atomic             Coordinates (Angstroms)
 Number     Number       Type             X           Y           Z
 ---------------------------------------------------------------------
      1          6           0        2.852667    1.005311    0.375384
      2          6           0        2.897639   -0.476520    0.014667
      3          7           0        1.560330   -1.039534   -0.276711
      4          6           0        0.974363   -1.142513   -1.525671
      5          6           0       -0.278785   -1.635684   -1.342477
      6          7           0       -0.443300   -1.824503    0.015874
      7          6           0        0.677154   -1.450445    0.637518
      8          6           0       -1.663564   -2.309134    0.674262
      9          6           0       -0.389190    2.462377   -0.498532
     10          6           0       -1.210705    1.553425    0.198825
     11          6           0       -0.845291    1.120233    1.483470
     12          7           0       -0.515543    0.681693    2.512801
     13          6           0       -2.265323    0.887538   -0.451788
     14          7           0       -3.101676    0.262903   -0.967246
     15          7           0        0.326374    3.177036   -1.070949
     16          1           0        2.411380    1.605886   -0.421734
     17          1           0        3.872525    1.355592    0.551882
     18          1           0        2.271097    1.169891    1.284212
     19          1           0        3.323728   -1.072683    0.823661
     20          1           0        3.502728   -0.655104   -0.875276
     21          1           0        1.484660   -0.834689   -2.421152
     22          1           0       -1.078267   -1.815515   -2.039092
     23          1           0        0.808633   -1.406043    1.705144
     24          1           0       -1.652705   -1.971509    1.708827
     25          1           0       -1.701360   -3.398218    0.628198
     26          1           0       -2.519509   -1.868311    0.165005
 ---------------------------------------------------------------------

 SCF Done:  E(RHF) =  -657.475986235     A.U. after   13 cycles
 E2 =    -0.2558444121D+01 EUMP2 =    -0.66003443035608D+03
 E2(CBS)=      -2.794626 CBS-Int=       0.081349 OIii=      19.478642

 The electronic state is 1-A.
 Alpha  occ. eigenvalues --  -15.69570 -15.69555 -15.54654 -15.54102 -15.53504
 Alpha  occ. eigenvalues --  -11.38970 -11.32633 -11.32585 -11.32391 -11.30829
 Alpha  occ. eigenvalues --  -11.27417 -11.26666 -11.25797 -11.25319 -11.24449
 Alpha  occ. eigenvalues --   -1.44483  -1.30214  -1.21261  -1.19410  -1.18635
 Alpha  occ. eigenvalues --   -1.11548  -1.07811  -1.04791  -1.01920  -0.92519
 Alpha  occ. eigenvalues --   -0.89074  -0.86248  -0.78551  -0.76276  -0.76189
 Alpha  occ. eigenvalues --   -0.72004  -0.69381  -0.68700  -0.67197  -0.66209
 Alpha  occ. eigenvalues --   -0.64296  -0.63085  -0.60071  -0.57789  -0.56539
 Alpha  occ. eigenvalues --   -0.55090  -0.54542  -0.54221  -0.53959  -0.53188
 Alpha  occ. eigenvalues --   -0.47174  -0.46979  -0.46045  -0.45587  -0.45108
 Alpha  occ. eigenvalues --   -0.43350  -0.39406  -0.29611
 Alpha virt. eigenvalues --    0.01559   0.03010   0.03519   0.05005   0.05437
 Alpha virt. eigenvalues --    0.05983   0.06675   0.08097   0.08728   0.09026
 Alpha virt. eigenvalues --    0.09308   0.09579   0.10388   0.10550   0.11411

 Mulliken charges:
               1
     1  C   -0.286418
     2  C    0.089018
     3  N    0.296316
     4  C   -0.289592
     5  C   -0.023739
     6  N    0.269498
     7  C   -0.430126
     8  C   -0.118647
     9  C   -0.249749
    10  C    0.800057
    11  C   -0.007250
    12  N   -0.489391
    13  C   -0.112061
    14  N   -0.467687
    15  N   -0.419565
    16  H    0.103289
    17  H    0.082828
    18  H    0.093918
    19  H    0.053349
    20  H    0.094363
    21  H    0.192102
    22  H    0.208443
    23  H    0.276396
    24  H    0.103994
    25  H    0.099060
    26  H    0.131594
 Sum of Mulliken charges =  -0.00000

 Dipole moment (field-independent basis, Debye):
    X=              6.5553    Y=            -10.1373    Z=             -0.4276  Tot=             12.0797
 Quadrupole moment (field-independent basis, Debye-Ang):
   XX=            -89.4712   YY=            -97.5213   ZZ=            -97.1570
   XY=              1.9571   XZ=             -3.3431   YZ=              2.5350

 Normal termination of Gaussian 16 at Sat Feb 29 09:36:01 2020.
