 Gaussian 16, Revision C.01,
 Gaussian 16:  ES64L-G16RevC.01  3-Jul-2019

 ---
 #G2
 ---
 1/18=20,19=15,38=1/1,3;
 2/9=110,12=2,17=6,18=5,40=1/2;
 3/5=1,6=6,7=1,11=9,25=1,30=1,71=1/1,2,3;
 4//1;
 5/5=2,38=5/2;

 ------------
 hydrogen.xyz
 ------------
 Symbolic Z-matrix:
 Charge =  0 Multiplicity = 2

 SCF Done:  E(UHF) = -0.498232909202     A.U. after    5 cycles
 SCF Done:  E(UHF) = -0.498232909202     A.U. after    1 cycles
 Optimization completed.
    -- Stationary point found.
 Normal termination of Gaussian 16 at Tue Feb 25 16:11:34 2020.

 --------------------------------------------------------------
 #N Geom=AllCheck Guess=TCheck SCRF=Check Test HF/6-31G(d) Freq
 --------------------------------------------------------------

 Structure from the checkpoint file:  "hydrogen.chk"
 ------------
 hydrogen.xyz
 ------------
 Charge =  0 Multiplicity = 2

 SCF Done:  E(UHF) = -0.498232909202     A.U. after    1 cycles

  Exact polarizability:       0.000       0.000       0.000       0.000       0.000       0.000
 Approx polarizability:      -0.000      -0.000      -0.000      -0.000      -0.000      -0.000

 - Thermochemistry -
 -------------------
 Temperature   298.150 Kelvin.  Pressure   1.00000 Atm.
 Atom     1 has atomic number  1 and mass   1.00783
 Molecular mass:     1.00783 amu.
 Zero-point vibrational energy          0.0 (Joules/Mol)
                                    0.00000 (Kcal/Mol)
 Vibrational temperatures:
          (Kelvin)

 Zero-point correction=                           0.000000 (Hartree/Particle)
 Thermal correction to Energy=                    0.001416
 Thermal correction to Enthalpy=                  0.002360
 Thermal correction to Gibbs Free Energy=        -0.010654
 Sum of electronic and zero-point Energies=             -0.498233
 Sum of electronic and thermal Energies=                -0.496817
 Sum of electronic and thermal Enthalpies=              -0.495872
 Sum of electronic and thermal Free Energies=           -0.508887

                     E (Thermal)             CV                S
                      KCal/Mol        Cal/Mol-Kelvin    Cal/Mol-Kelvin
 Total                    0.889              2.981             27.392
 Electronic               0.000              0.000              1.377
 Translational            0.889              2.981             26.014
 Rotational               0.000              0.000              0.000
 Vibrational              0.000              0.000              0.000

 Optimization completed.
    -- Stationary point found.
 Normal termination of Gaussian 16 at Tue Feb 25 16:11:36 2020.

 ----------------------------------------------------------------------
 #N Geom=AllCheck Guess=TCheck SCRF=Check Test MP2(Full)/6-31G(d) Opt=R
 CFC
 ----------------------------------------------------------------------

 Structure from the checkpoint file:  "hydrogen.chk"
 ------------
 hydrogen.xyz
 ------------
 Charge =  0 Multiplicity = 2

 SCF Done:  E(UHF) = -0.498232909202     A.U. after    1 cycles
 E2 =     0.0000000000D+00 EUMP2 =    -0.49823290920158D+00
 SCF Done:  E(UHF) = -0.498232909202     A.U. after    1 cycles
 E2 =     0.0000000000D+00 EUMP2 =    -0.49823290920158D+00
 Optimization completed.
    -- Stationary point found.
 Normal termination of Gaussian 16 at Tue Feb 25 16:11:39 2020.

 ----------------------------------------------------------------------
 #N Geom=AllCheck Guess=TCheck SCRF=Check Test QCISD(T,E4T)/6-311G(d,p)
 ----------------------------------------------------------------------

 Structure from the checkpoint file:  "hydrogen.chk"
 ------------
 hydrogen.xyz
 ------------
 Charge =  0 Multiplicity = 2

 SCF Done:  E(UHF) = -0.499809815273     A.U. after    5 cycles
 E2 =     0.0000000000D+00 EUMP2 =    -0.49980981527328D+00
 Normal termination of Gaussian 16 at Tue Feb 25 16:11:40 2020.

 --------------------------------------------------------------
 #N Geom=AllCheck Guess=TCheck SCRF=Check Test MP4/6-311+G(d,p)
 --------------------------------------------------------------

 Structure from the checkpoint file:  "hydrogen.chk"
 ------------
 hydrogen.xyz
 ------------
 Charge =  0 Multiplicity = 2

 SCF Done:  E(UHF) = -0.499809815273     A.U. after    1 cycles
 E2 =     0.0000000000D+00 EUMP2 =    -0.49980981527328D+00
 Normal termination of Gaussian 16 at Tue Feb 25 16:11:41 2020.

 ---------------------------------------------------------------
 #N Geom=AllCheck Guess=TCheck SCRF=Check Test MP4/6-311G(2df,p)
 ---------------------------------------------------------------

 Structure from the checkpoint file:  "hydrogen.chk"
 ------------
 hydrogen.xyz
 ------------
 Charge =  0 Multiplicity = 2

 SCF Done:  E(UHF) = -0.499809815273     A.U. after    1 cycles
 E2 =     0.0000000000D+00 EUMP2 =    -0.49980981527328D+00
 Normal termination of Gaussian 16 at Tue Feb 25 16:11:42 2020.

                         Standard orientation:
 ---------------------------------------------------------------------
 Center     Atomic      Atomic             Coordinates (Angstroms)
 Number     Number       Type             X           Y           Z
 ---------------------------------------------------------------------
      1          1           0        0.000000    0.000000    0.000000
 ---------------------------------------------------------------------

 SCF Done:  E(UHF) = -0.499809815273     A.U. after    1 cycles
 E2 =     0.0000000000D+00 EUMP2 =    -0.49980981527328D+00

 The electronic state is 2-A1G.
 Alpha  occ. eigenvalues --   -0.49981
 Alpha virt. eigenvalues --    0.34890   0.71722   0.71722   0.71722   2.46995
 Alpha virt. eigenvalues --    3.98120   3.98120   3.98120
  Beta virt. eigenvalues --    0.05625   0.49238   0.81464   0.81464   0.81464

 Mulliken charges and spin densities:
               1          2
     1  H   -0.000000   1.000000
 Sum of Mulliken charges =  -0.00000   1.00000

 Dipole moment (field-independent basis, Debye):
    X=              0.0000    Y=              0.0000    Z=              0.0000  Tot=              0.0000
 Quadrupole moment (field-independent basis, Debye-Ang):
   XX=             -1.3410   YY=             -1.3410   ZZ=             -1.3410
   XY=              0.0000   XZ=              0.0000   YZ=              0.0000

 Normal termination of Gaussian 16 at Tue Feb 25 16:11:43 2020.
