 Gaussian 16, Revision C.01,
 Gaussian 16:  ES64L-G16RevC.01  3-Jul-2019

 ------------------------------------------------------------------
 #wb97xd/def2svp/w06 opt(tight) freq temperature=298.2 scale=0.9788
 ------------------------------------------------------------------

 -------------
 c1c2c2im_ncn2
 -------------
 Symbolic Z-matrix:
 Charge =  0 Multiplicity = 1

 SCF Done:  E(RwB97XD) =  -584.543737399     A.U. after   16 cycles
 SCF Done:  E(RwB97XD) =  -584.550003607     A.U. after   14 cycles
 SCF Done:  E(RwB97XD) =  -584.551367166     A.U. after   15 cycles
 SCF Done:  E(RwB97XD) =  -584.552835087     A.U. after   14 cycles
 SCF Done:  E(RwB97XD) =  -584.553282397     A.U. after   13 cycles
 SCF Done:  E(RwB97XD) =  -584.553384240     A.U. after   12 cycles
 SCF Done:  E(RwB97XD) =  -584.553422642     A.U. after   12 cycles
 SCF Done:  E(RwB97XD) =  -584.553457862     A.U. after   11 cycles
 SCF Done:  E(RwB97XD) =  -584.553474577     A.U. after   12 cycles
 SCF Done:  E(RwB97XD) =  -584.553479302     A.U. after   10 cycles
 SCF Done:  E(RwB97XD) =  -584.553495276     A.U. after    7 cycles
 SCF Done:  E(RwB97XD) =  -584.553495257     A.U. after    7 cycles
 SCF Done:  E(RwB97XD) =  -584.553495250     A.U. after    5 cycles
 SCF Done:  E(RwB97XD) =  -584.553495248     A.U. after    4 cycles
 SCF Done:  E(RwB97XD) =  -584.553495263     A.U. after    8 cycles
 SCF Done:  E(RwB97XD) =  -584.553495246     A.U. after    5 cycles
 SCF Done:  E(RwB97XD) =  -584.553495243     A.U. after    5 cycles
 SCF Done:  E(RwB97XD) =  -584.553495246     A.U. after    8 cycles
 SCF Done:  E(RwB97XD) =  -584.553495241     A.U. after    5 cycles
 Optimization completed.
    -- Stationary point found.
 Normal termination of Gaussian 16 at Fri Mar  6 15:18:07 2020.

 ----------------------------------------------------------------------
 #N Geom=AllCheck Guess=TCheck SCRF=Check Test GenChk RwB97XD/def2SVP/W
 06 Freq
 ----------------------------------------------------------------------

 Structure from the checkpoint file:  "c1c2im_ncn2.chk"
 -------------
 c1c2c2im_ncn2
 -------------
 Charge =  0 Multiplicity = 1

                         Standard orientation:
 ---------------------------------------------------------------------
 Center     Atomic      Atomic             Coordinates (Angstroms)
 Number     Number       Type             X           Y           Z
 ---------------------------------------------------------------------
      1          6           0       -2.834428    1.400074   -0.500384
      2          6           0       -2.924341   -0.045141   -0.036628
      3          7           0       -1.624610   -0.717650   -0.084045
      4          6           0       -0.973745   -1.136924   -1.227005
      5          6           0        0.269204   -1.545315   -0.854419
      6          7           0        0.353751   -1.369445    0.509968
      7          6           0       -0.792468   -0.851193    0.943867
      8          6           0        1.534277   -1.609606    1.330667
      9          6           0        0.912778    1.832415    0.557764
     10          7           0        0.004533    1.783817    1.303134
     11          7           0        1.912518    1.927053   -0.266540
     12          6           0        2.460351    0.847449   -0.754444
     13          7           0        2.961918   -0.114936   -1.199232
     14          1           0       -2.517199    1.459571   -1.551766
     15          1           0       -2.105289    1.945341    0.116933
     16          1           0       -3.821757    1.874765   -0.412580
     17          1           0       -3.619197   -0.637225   -0.650134
     18          1           0       -3.274848   -0.103878    1.002756
     19          1           0       -1.440760   -1.091620   -2.205828
     20          1           0        1.125521   -1.870702   -1.438537
     21          1           0       -0.994923   -0.531655    1.961184
     22          1           0        1.517060   -2.630973    1.733873
     23          1           0        1.545942   -0.874927    2.145122
     24          1           0        2.418909   -1.451129    0.699483
 ---------------------------------------------------------------------

 SCF Done:  E(RwB97XD) =  -584.553495241     A.U. after    1 cycles

 The electronic state is 1-A.
 Alpha  occ. eigenvalues --  -14.56904 -14.56747 -14.41614 -14.38446 -14.37943
 Alpha  occ. eigenvalues --  -10.43148 -10.38740 -10.38136 -10.37898 -10.36785
 Alpha  occ. eigenvalues --  -10.32933 -10.32263 -10.31462  -1.20502  -1.08407
 Alpha  occ. eigenvalues --   -1.01786  -0.94260  -0.93381  -0.91324  -0.90120
 Alpha  occ. eigenvalues --   -0.85047  -0.78340  -0.75520  -0.73014  -0.68099
 Alpha  occ. eigenvalues --   -0.67501  -0.62945  -0.60195  -0.59601  -0.58110
 Alpha  occ. eigenvalues --   -0.57412  -0.55614  -0.54933  -0.51509  -0.50660
 Alpha  occ. eigenvalues --   -0.48922  -0.47738  -0.47308  -0.46459  -0.42012
 Alpha  occ. eigenvalues --   -0.41402  -0.40520  -0.39134  -0.38110  -0.35674
 Alpha  occ. eigenvalues --   -0.30215  -0.26810
 Alpha virt. eigenvalues --    0.02783   0.06080   0.11069   0.12988   0.13539
 Alpha virt. eigenvalues --    0.13980   0.15717   0.16572   0.17161   0.17783
 Alpha virt. eigenvalues --    0.18487   0.18636   0.20064   0.20197   0.20766

 Mulliken charges:
               1
     1  C   -0.077275
     2  C    0.046272
     3  N   -0.230589
     4  C    0.044280
     5  C    0.100135
     6  N   -0.249132
     7  C    0.248365
     8  C    0.050785
     9  C   -0.141790
    10  N   -0.157789
    11  N   -0.245127
    12  C   -0.168783
    13  N   -0.111208
    14  H    0.051134
    15  H    0.095545
    16  H    0.057002
    17  H    0.063807
    18  H    0.064401
    19  H    0.075784
    20  H    0.102788
    21  H    0.109009
    22  H    0.077402
    23  H    0.087035
    24  H    0.107948
 Sum of Mulliken charges =  -0.00000

 Dipole moment (field-independent basis, Debye):
    X=             -7.9762    Y=             -6.6860    Z=              1.2307  Tot=             10.4803
 Quadrupole moment (field-independent basis, Debye-Ang):
   XX=            -80.0386   YY=            -81.7394   ZZ=            -73.9004
   XY=             -4.8652   XZ=             10.3924   YZ=             -5.7763

  Exact polarizability:     124.377     -16.072      94.237      -7.533       5.511      97.695
 Approx polarizability:     137.925     -20.853     110.635     -19.964      12.363     124.020

                      1                      2                      3
                      A                      A                      A
 Frequencies --     38.1734                47.5199                50.0605
 Red. masses --      6.1211                 3.9135                 5.1469
 Frc consts  --      0.0053                 0.0052                 0.0076
 IR Inten    --      2.8712                 4.9124                 0.9685

                      4                      5                      6
                      A                      A                      A
 Frequencies --     88.9271               110.7672               118.4445
 Red. masses --      4.6085                 3.4618                 4.3334
 Frc consts  --      0.0215                 0.0250                 0.0358
 IR Inten    --      5.8508                 8.9973                 5.6337

                      7                      8                      9
                      A                      A                      A
 Frequencies --    144.8892               162.6048               188.3038
 Red. masses --      4.0675                 2.1844                 3.7183
 Frc consts  --      0.0503                 0.0340                 0.0777
 IR Inten    --      5.6255                 3.5751                 0.8201

                     10                     11                     12
                      A                      A                      A
 Frequencies --    208.2226               237.3212               270.9874
 Red. masses --      3.0277                 1.4651                 2.5603
 Frc consts  --      0.0773                 0.0486                 0.1108
 IR Inten    --     27.6476                 0.2544                 3.6389

                     13                     14                     15
                      A                      A                      A
 Frequencies --    309.9333               410.0128               441.4660
 Red. masses --      1.7263                 3.1277                 2.5961
 Frc consts  --      0.0977                 0.3098                 0.2981
 IR Inten    --      1.3601                 0.1315                 0.7176

                     16                     17                     18
                      A                      A                      A
 Frequencies --    528.4283               542.4407               553.0907
 Red. masses --     12.1839                12.2992                12.6055
 Frc consts  --      2.0045                 2.1322                 2.2720
 IR Inten    --     10.3854                 2.1345                23.5647

                     19                     20                     21
                      A                      A                      A
 Frequencies --    621.8890               649.9824               674.1690
 Red. masses --      3.6665                 2.9160                 2.8319
 Frc consts  --      0.8355                 0.7258                 0.7584
 IR Inten    --      0.8647                30.1818                18.5207

                     22                     23                     24
                      A                      A                      A
 Frequencies --    677.9178               729.3350               745.8049
 Red. masses --     10.6420                 3.5552                 1.2612
 Frc consts  --      2.8816                 1.1142                 0.4133
 IR Inten    --     32.7935                 6.8565                42.7370

                     25                     26                     27
                      A                      A                      A
 Frequencies --    815.3601               843.1397               881.6082
 Red. masses --      1.1500                 1.4780                 1.4154
 Frc consts  --      0.4504                 0.6190                 0.6482
 IR Inten    --      2.7349                17.1468                 3.5199

                     28                     29                     30
                      A                      A                      A
 Frequencies --    978.3423               980.2483              1053.4103
 Red. masses --     10.3259                 2.2584                 2.6782
 Frc consts  --      5.8232                 1.2786                 1.7510
 IR Inten    --     18.8786                 4.3519                 1.5500

                     31                     32                     33
                      A                      A                      A
 Frequencies --   1067.8292              1114.6629              1122.0314
 Red. masses --      2.8124                 1.2415                 1.9520
 Frc consts  --      1.8894                 0.9089                 1.4479
 IR Inten    --      3.9137                10.1999                 8.3584

                     34                     35                     36
                      A                      A                      A
 Frequencies --   1132.5684              1144.7762              1157.2894
 Red. masses --      1.4516                 1.5977                 1.3447
 Frc consts  --      1.0971                 1.2336                 1.0611
 IR Inten    --      3.1930                 3.3997                 6.8095

                     37                     38                     39
                      A                      A                      A
 Frequencies --   1213.0676              1273.8258              1319.0705
 Red. masses --      1.7545                 1.2879                 1.2732
 Frc consts  --      1.5212                 1.2312                 1.3052
 IR Inten    --     86.3557                 0.1036                 0.1053

                     40                     41                     42
                      A                      A                      A
 Frequencies --   1380.8095              1408.2675              1416.8068
 Red. masses --      1.2905                 4.8576                 7.0301
 Frc consts  --      1.4497                 5.6760                 8.3145
 IR Inten    --      3.8087                 2.0663               118.5073

                     43                     44                     45
                      A                      A                      A
 Frequencies --   1426.7365              1439.3556              1448.4665
 Red. masses --      1.4184                 1.8087                 1.2554
 Frc consts  --      1.7011                 2.2078                 1.5518
 IR Inten    --     10.9833                 1.1674                 8.5821

                     46                     47                     48
                      A                      A                      A
 Frequencies --   1472.9921              1481.3566              1489.6644
 Red. masses --      1.0367                 1.2684                 1.3327
 Frc consts  --      1.3253                 1.6400                 1.7425
 IR Inten    --     12.9719                 9.4400                 5.9354

                     49                     50                     51
                      A                      A                      A
 Frequencies --   1495.8990              1502.6774              1515.1531
 Red. masses --      1.2401                 1.0889                 2.6665
 Frc consts  --      1.6350                 1.4487                 3.6066
 IR Inten    --     16.9066                 9.0162                 9.0492

                     52                     53                     54
                      A                      A                      A
 Frequencies --   1647.8227              1662.1465              2308.7116
 Red. masses --      4.8539                 4.8974                12.5479
 Frc consts  --      7.7653                 7.9718                39.4059
 IR Inten    --     14.8513                84.3752               988.1368

                     55                     56                     57
                      A                      A                      A
 Frequencies --   2348.4195              3059.5373              3070.8901
 Red. masses --     12.5922                 1.0366                 1.0335
 Frc consts  --     40.9170                 5.7170                 5.7421
 IR Inten    --    174.6149                23.5642                29.9482

                     58                     59                     60
                      A                      A                      A
 Frequencies --   3096.3911              3156.0474              3171.3843
 Red. masses --      1.0630                 1.1073                 1.1054
 Frc consts  --      6.0047                 6.4982                 6.5504
 IR Inten    --     21.3040                 8.4784                12.5291

                     61                     62                     63
                      A                      A                      A
 Frequencies --   3178.8819              3189.2345              3201.3413
 Red. masses --      1.1072                 1.1095                 1.1085
 Frc consts  --      6.5920                 6.6488                 6.6937
 IR Inten    --      2.8269                 5.5801                 8.5093

                     64                     65                     66
                      A                      A                      A
 Frequencies --   3305.2247              3322.4100              3331.3004
 Red. masses --      1.0944                 1.1112                 1.1060
 Frc consts  --      7.0441                 7.2268                 7.2318
 IR Inten    --     20.6872                24.4083                17.8571

 - Thermochemistry -
 -------------------
 Temperature   298.200 Kelvin.  Pressure   1.00000 Atm.
 Thermochemistry will use frequencies scaled by 0.9788.

 Molecular mass:   177.10145 amu.
 Principal axes and moments of inertia in atomic units:
                           1         2         3
     Eigenvalues --  1620.214192684.059413279.05855
           X            0.99732  -0.06830   0.02629
           Y            0.06927   0.99686  -0.03829
           Z           -0.02359   0.04001   0.99892
 This molecule is an asymmetric top.
 Rotational symmetry number  1.
 Warning -- assumption of classical behavior for rotation
           may cause significant error
 Rotational temperatures (Kelvin)      0.05346     0.03227     0.02641
 Rotational constants (GHZ):           1.11389     0.67239     0.55038
 Zero-point vibrational energy     498664.1 (Joules/Mol)
                                  119.18357 (Kcal/Mol)
 Warning -- explicit consideration of  19 degrees of freedom as
           vibrations may cause significant error
 Vibrational temperatures:     53.76    66.92    70.50   125.23   155.99
          (Kelvin)            166.80   204.04   228.99   265.18   293.23
                              334.21   381.62   436.47   577.41   621.71
                              744.17   763.91   778.90   875.79   915.35
                              949.42   954.69  1027.10  1050.30  1148.25
                             1187.37  1241.55  1377.77  1380.46  1483.49
                             1503.80  1569.75  1580.13  1594.97  1612.16
                             1629.78  1708.33  1793.90  1857.61  1944.56
                             1983.23  1995.25  2009.24  2027.01  2039.84
                             2074.38  2086.16  2097.86  2106.64  2116.18
                             2133.75  2320.59  2340.76  3251.30  3307.22
                             4308.67  4324.66  4360.57  4444.58  4466.18
                             4476.74  4491.32  4508.37  4654.66  4678.87
                             4691.39

 Zero-point correction=                           0.189931 (Hartree/Particle)
 Thermal correction to Energy=                    0.203883
 Thermal correction to Enthalpy=                  0.204827
 Thermal correction to Gibbs Free Energy=         0.147943
 Sum of electronic and zero-point Energies=           -584.363564
 Sum of electronic and thermal Energies=              -584.349612
 Sum of electronic and thermal Enthalpies=            -584.348668
 Sum of electronic and thermal Free Energies=         -584.405552

                     E (Thermal)             CV                S
                      KCal/Mol        Cal/Mol-Kelvin    Cal/Mol-Kelvin
 Total                  127.938             48.734            119.703
 Electronic               0.000              0.000              0.000
 Translational            0.889              2.981             41.423
 Rotational               0.889              2.981             31.035
 Vibrational            126.161             42.772             47.245
 Vibration     1          0.594              1.982              5.394
 Vibration     2          0.595              1.979              4.961
 Vibration     3          0.595              1.978              4.858
 Vibration     4          0.601              1.958              3.726
 Vibration     5          0.606              1.943              3.297
 Vibration     6          0.608              1.936              3.167
 Vibration     7          0.616              1.911              2.780
 Vibration     8          0.621              1.892              2.560
 Vibration     9          0.631              1.861              2.285
 Vibration    10          0.640              1.835              2.099
 Vibration    11          0.653              1.792              1.861
 Vibration    12          0.671              1.737              1.627
 Vibration    13          0.695              1.667              1.399
 Vibration    14          0.767              1.467              0.958
 Vibration    15          0.793              1.400              0.852
 Vibration    16          0.872              1.212              0.617
 Vibration    17          0.886              1.182              0.585
 Vibration    18          0.897              1.159              0.563
 Vibration    19          0.968              1.014              0.435

                           ! Non-Optimized Parameters !
 Normal termination of Gaussian 16 at Fri Mar  6 15:21:09 2020.
