 Gaussian 16, Revision C.01,
 Gaussian 16:  ES64L-G16RevC.01  3-Jul-2019

 ------------------------------------------------------------------
 #wb97xd/def2svp/w06 opt(tight) freq temperature=351.1 scale=0.9788
 ------------------------------------------------------------------

 -----------
 c1c2im_bcn4
 -----------
 Symbolic Z-matrix:
 Charge =  0 Multiplicity = 1

 SCF Done:  E(RwB97XD) =  -740.248890447     A.U. after   16 cycles
 SCF Done:  E(RwB97XD) =  -740.229061240     A.U. after   16 cycles
 SCF Done:  E(RwB97XD) =  -740.246656911     A.U. after   15 cycles
 SCF Done:  E(RwB97XD) =  -740.250758476     A.U. after   12 cycles
 SCF Done:  E(RwB97XD) =  -740.254673469     A.U. after   14 cycles
 SCF Done:  E(RwB97XD) =  -740.252294659     A.U. after   14 cycles
 SCF Done:  E(RwB97XD) =  -740.256197222     A.U. after   13 cycles
 SCF Done:  E(RwB97XD) =  -740.256782301     A.U. after   13 cycles
 SCF Done:  E(RwB97XD) =  -740.257107021     A.U. after   13 cycles
 SCF Done:  E(RwB97XD) =  -740.257246953     A.U. after   13 cycles
 SCF Done:  E(RwB97XD) =  -740.257659239     A.U. after    6 cycles
 SCF Done:  E(RwB97XD) =  -740.257659237     A.U. after    5 cycles
 SCF Done:  E(RwB97XD) =  -740.257659238     A.U. after    5 cycles
 SCF Done:  E(RwB97XD) =  -740.257659240     A.U. after    5 cycles
 SCF Done:  E(RwB97XD) =  -740.257659244     A.U. after    5 cycles
 SCF Done:  E(RwB97XD) =  -740.257659248     A.U. after    5 cycles
 SCF Done:  E(RwB97XD) =  -740.257659248     A.U. after    4 cycles
 SCF Done:  E(RwB97XD) =  -740.257659248     A.U. after    5 cycles
 SCF Done:  E(RwB97XD) =  -740.257659250     A.U. after    5 cycles
 Optimization completed.
    -- Stationary point found.
 Normal termination of Gaussian 16 at Mon Mar  9 12:52:42 2020.

 ----------------------------------------------------------------------
 #N Geom=AllCheck Guess=TCheck SCRF=Check Test GenChk RwB97XD/def2SVP/W
 06 Freq
 ----------------------------------------------------------------------

 Structure from the checkpoint file:  "c1c2im_bcn4.chk"
 -----------
 c1c2im_bcn4
 -----------
 Charge =  0 Multiplicity = 1

                         Standard orientation:
 ---------------------------------------------------------------------
 Center     Atomic      Atomic             Coordinates (Angstroms)
 Number     Number       Type             X           Y           Z
 ---------------------------------------------------------------------
      1          5           0       -2.098108   -0.213431    0.003274
      2          6           0       -1.731548    1.299392   -0.384455
      3          7           0       -1.382123    2.372918   -0.642184
      4          6           0       -1.363934   -0.518719    1.399801
      5          7           0       -0.722899   -0.712698    2.345452
      6          6           0       -1.418745   -1.172639   -1.087300
      7          7           0       -0.829437   -1.837740   -1.830309
      8          6           0       -3.666656   -0.434676    0.099245
      9          7           0       -4.809938   -0.595158    0.171358
     10          6           0        3.181759   -2.439598    0.336281
     11          6           0        1.758326   -1.911573    0.280694
     12          7           0        1.708788   -0.488246   -0.071665
     13          6           0        1.738525    0.029692   -1.346188
     14          6           0        1.673074    1.383783   -1.227326
     15          7           0        1.612421    1.668080    0.119116
     16          6           0        1.627329    0.520512    0.793333
     17          6           0        1.434066    2.995255    0.691726
     18          1           0        3.163165   -3.507419    0.593925
     19          1           0        3.776320   -1.915195    1.098891
     20          1           0        3.687754   -2.334441   -0.634665
     21          1           0        1.239788   -2.013364    1.243597
     22          1           0        1.151034   -2.433959   -0.470619
     23          1           0        1.744853   -0.610259   -2.223207
     24          1           0        1.617512    2.162407   -1.981233
     25          1           0        1.523606    0.411764    1.870447
     26          1           0        0.484035    3.404081    0.321450
     27          1           0        2.276775    3.636673    0.404563
     28          1           0        1.394832    2.908213    1.783241
 ---------------------------------------------------------------------

 SCF Done:  E(RwB97XD) =  -740.257659250     A.U. after    1 cycles

 The electronic state is 1-A.
 Alpha  occ. eigenvalues --  -14.58723 -14.58170 -14.44469 -14.44186 -14.43909
 Alpha  occ. eigenvalues --  -14.41643 -10.44472 -10.39543 -10.39474 -10.38922
 Alpha  occ. eigenvalues --  -10.38326 -10.33714 -10.32658 -10.32323 -10.32035
 Alpha  occ. eigenvalues --  -10.29471  -6.90403  -1.22027  -1.09834  -0.99468
 Alpha  occ. eigenvalues --   -0.98850  -0.98538  -0.96138  -0.94664  -0.91465
 Alpha  occ. eigenvalues --   -0.86834  -0.79769  -0.77118  -0.75416  -0.74401
 Alpha  occ. eigenvalues --   -0.68581  -0.64583  -0.61504  -0.60699  -0.59754
 Alpha  occ. eigenvalues --   -0.58678  -0.57937  -0.57692  -0.57628  -0.56949
 Alpha  occ. eigenvalues --   -0.56213  -0.53900  -0.51947  -0.50406  -0.48101
 Alpha  occ. eigenvalues --   -0.45827  -0.45565  -0.45199  -0.43725  -0.43576
 Alpha  occ. eigenvalues --   -0.43272  -0.43005  -0.41506  -0.41195  -0.40975
 Alpha  occ. eigenvalues --   -0.40427  -0.39223  -0.39164  -0.38474
 Alpha virt. eigenvalues --    0.01276   0.04553   0.06460   0.07690   0.08246
 Alpha virt. eigenvalues --    0.09858   0.10082   0.11084   0.11761   0.13201
 Alpha virt. eigenvalues --    0.13749   0.15234   0.15846   0.16882   0.17391

 Mulliken charges:
               1
     1  B    0.033212
     2  C   -0.099241
     3  N   -0.123196
     4  C   -0.117430
     5  N   -0.131953
     6  C   -0.103412
     7  N   -0.121546
     8  C   -0.135650
     9  N   -0.062447
    10  C   -0.060492
    11  C    0.024524
    12  N   -0.233047
    13  C    0.083385
    14  C    0.073491
    15  N   -0.233168
    16  C    0.218905
    17  C    0.058558
    18  H    0.074681
    19  H    0.047906
    20  H    0.053566
    21  H    0.086690
    22  H    0.094834
    23  H    0.095695
    24  H    0.086806
    25  H    0.117433
    26  H    0.116275
    27  H    0.078737
    28  H    0.076884
 Sum of Mulliken charges =  -0.00000

 Dipole moment (field-independent basis, Debye):
    X=             13.5119    Y=              2.7477    Z=              0.4203  Tot=             13.7948
 Quadrupole moment (field-independent basis, Debye-Ang):
   XX=           -119.0202   YY=            -92.6689   ZZ=           -103.2407
   XY=             -0.2822   XZ=              0.8007   YZ=              0.8116

  Exact polarizability:     131.579      -1.666     140.260      -0.888       0.172     117.746
 Approx polarizability:     140.256      -0.609     160.811      -1.201       0.318     150.262

                      1                      2                      3
                      A                      A                      A
 Frequencies --     33.5911                52.4481                54.5934
 Red. masses --      5.1977                 3.1212                 4.6344
 Frc consts  --      0.0035                 0.0051                 0.0081
 IR Inten    --      1.9766                 3.3990                 1.4688

                      4                      5                      6
                      A                      A                      A
 Frequencies --     68.2701                74.7784                83.3184
 Red. masses --      7.0567                 6.0312                 4.8008
 Frc consts  --      0.0194                 0.0199                 0.0196
 IR Inten    --      3.0419                 1.9027                 0.3192

                      7                      8                      9
                      A                      A                      A
 Frequencies --    105.2084               121.3571               136.1780
 Red. masses --      6.6721                 6.2159                 9.1153
 Frc consts  --      0.0435                 0.0539                 0.0996
 IR Inten    --      3.4822                 0.7692                10.2493

                     10                     11                     12
                      A                      A                      A
 Frequencies --    138.3799               140.2631               151.9944
 Red. masses --      7.4147                 1.8876                 3.1069
 Frc consts  --      0.0837                 0.0219                 0.0423
 IR Inten    --     10.1028                 2.2272                10.7091

                     13                     14                     15
                      A                      A                      A
 Frequencies --    169.9730               179.5270               214.1780
 Red. masses --      5.9509                 3.9769                 1.1850
 Frc consts  --      0.1013                 0.0755                 0.0320
 IR Inten    --     11.2634                24.6427                 0.2756

                     16                     17                     18
                      A                      A                      A
 Frequencies --    263.6684               305.1047               344.5943
 Red. masses --      3.0767                 2.0132                12.3454
 Frc consts  --      0.1260                 0.1104                 0.8637
 IR Inten    --      6.3054                 0.8275                 0.2663

                     19                     20                     21
                      A                      A                      A
 Frequencies --    348.1744               349.7833               403.0946
 Red. masses --     12.3470                12.3668                 3.2275
 Frc consts  --      0.8819                 0.8915                 0.3090
 IR Inten    --      0.6651                 0.2887                 0.5608

                     22                     23                     24
                      A                      A                      A
 Frequencies --    438.5679               488.1214               495.6018
 Red. masses --      2.5091                13.0458                12.4021
 Frc consts  --      0.2843                 1.8314                 1.7948
 IR Inten    --      0.4766                 0.0545                 4.7364

                     25                     26                     27
                      A                      A                      A
 Frequencies --    499.1635               529.5643               543.5263
 Red. masses --     12.3907                12.3247                12.1177
 Frc consts  --      1.8190                 2.0364                 2.1092
 IR Inten    --      4.5078                 4.7029                 0.6271

                     28                     29                     30
                      A                      A                      A
 Frequencies --    544.6326               615.0763               645.5512
 Red. masses --     12.1163                 3.5216                 2.8894
 Frc consts  --      2.1175                 0.7850                 0.7094
 IR Inten    --      0.0370                 7.2531                17.0082

                     31                     32                     33
                      A                      A                      A
 Frequencies --    680.0310               728.9003               752.7482
 Red. masses --      2.5648                 3.6804                 1.2540
 Frc consts  --      0.6988                 1.1521                 0.4186
 IR Inten    --     40.7368                 3.8243                31.9427

                     34                     35                     36
                      A                      A                      A
 Frequencies --    813.3573               858.9282               888.4973
 Red. masses --      1.1299                 1.5516                 1.4434
 Frc consts  --      0.4404                 0.6744                 0.6713
 IR Inten    --      1.7993                30.5858                 2.0961

                     37                     38                     39
                      A                      A                      A
 Frequencies --    955.2134               964.6869               983.9671
 Red. masses --     11.2270                11.2758                 2.1839
 Frc consts  --      6.0355                 6.1826                 1.2458
 IR Inten    --     55.2214                60.8764                 5.5483

                     40                     41                     42
                      A                      A                      A
 Frequencies --   1017.6018              1056.5318              1067.7681
 Red. masses --     11.3512                 2.7745                 2.4377
 Frc consts  --      6.9255                 1.8248                 1.6375
 IR Inten    --    110.4922                 1.9456                 2.8596

                     43                     44                     45
                      A                      A                      A
 Frequencies --   1111.4040              1116.0967              1125.0777
 Red. masses --      1.3311                 1.8885                 1.4564
 Frc consts  --      0.9687                 1.3860                 1.0862
 IR Inten    --      8.4784                 5.0671                 4.7112

                     46                     47                     48
                      A                      A                      A
 Frequencies --   1144.6120              1155.7661              1208.9022
 Red. masses --      1.6224                 1.3424                 1.7730
 Frc consts  --      1.2524                 1.0565                 1.5267
 IR Inten    --      0.9133                 2.9307                83.9316

                     49                     50                     51
                      A                      A                      A
 Frequencies --   1270.6497              1318.9249              1387.7625
 Red. masses --      1.2764                 1.3103                 1.2553
 Frc consts  --      1.2142                 1.3430                 1.4244
 IR Inten    --      0.1556                 0.0490                10.3119

                     52                     53                     54
                      A                      A                      A
 Frequencies --   1407.2250              1422.5013              1441.4227
 Red. masses --      5.3894                 1.3681                 1.2644
 Frc consts  --      6.2881                 1.6311                 1.5478
 IR Inten    --      7.4023                 7.4728                 1.7919

                     55                     56                     57
                      A                      A                      A
 Frequencies --   1457.2378              1473.2147              1474.7623
 Red. masses --      1.6253                 1.1598                 1.0486
 Frc consts  --      2.0336                 1.4831                 1.3436
 IR Inten    --     12.3942                 7.0754                11.5971

                     58                     59                     60
                      A                      A                      A
 Frequencies --   1481.3959              1493.6600              1502.6048
 Red. masses --      1.1017                 2.7457                 1.1660
 Frc consts  --      1.4244                 3.6092                 1.5511
 IR Inten    --      4.5898                 3.2476                 9.3295

                     61                     62                     63
                      A                      A                      A
 Frequencies --   1515.3111              1648.2685              1662.4915
 Red. masses --      1.5374                 4.8029                 4.9501
 Frc consts  --      2.0799                 7.6879                 8.0609
 IR Inten    --      9.5712                20.2496                78.8211

                     64                     65                     66
                      A                      A                      A
 Frequencies --   2364.3434              2368.3852              2371.5267
 Red. masses --     12.7439                12.7417                12.7443
 Frc consts  --     41.9733                42.1096                42.2301
 IR Inten    --      2.6321                 1.6991                 1.9654

                     67                     68                     69
                      A                      A                      A
 Frequencies --   2389.3618              3062.2471              3077.6954
 Red. masses --     12.7305                 1.0376                 1.0338
 Frc consts  --     42.8211                 5.7329                 5.7694
 IR Inten    --      0.9025                11.7937                24.6550

                     70                     71                     72
                      A                      A                      A
 Frequencies --   3111.7086              3157.1758              3175.4834
 Red. masses --      1.0636                 1.1068                 1.1038
 Frc consts  --      6.0677                 6.4999                 6.5578
 IR Inten    --      4.5773                11.1684                 5.6917

                     73                     74                     75
                      A                      A                      A
 Frequencies --   3182.5851              3194.5568              3212.1049
 Red. masses --      1.1092                 1.1095                 1.1080
 Frc consts  --      6.6196                 6.6709                 6.7358
 IR Inten    --      0.2806                 7.3069                 3.3523

                     76                     77                     78
                      A                      A                      A
 Frequencies --   3306.6507              3309.1495              3327.6156
 Red. masses --      1.1042                 1.0946                 1.1134
 Frc consts  --      7.1135                 7.0624                 7.2637
 IR Inten    --     36.0511                16.1006                10.2976

 - Thermochemistry -
 -------------------
 Temperature   351.100 Kelvin.  Pressure   1.00000 Atm.
 Thermochemistry will use frequencies scaled by 0.9788.

 Molecular mass:   226.11382 amu.
 Principal axes and moments of inertia in atomic units:
                           1         2         3
     Eigenvalues --  2812.185764719.576715781.48684
           X            0.99956  -0.02915   0.00497
           Y            0.02912   0.99956   0.00483
           Z           -0.00511  -0.00469   0.99998
 This molecule is an asymmetric top.
 Rotational symmetry number  1.
 Warning -- assumption of classical behavior for rotation
           may cause significant error
 Rotational temperatures (Kelvin)      0.03080     0.01835     0.01498
 Rotational constants (GHZ):           0.64176     0.38239     0.31216
 Zero-point vibrational energy     542927.5 (Joules/Mol)
                                  129.76278 (Kcal/Mol)
 Warning -- explicit consideration of  32 degrees of freedom as
           vibrations may cause significant error
 Vibrational temperatures:     47.31    73.86    76.88    96.14   105.31
          (Kelvin)            117.34   148.16   170.90   191.78   194.88
                              197.53   214.05   239.37   252.82   301.62
                              371.32   429.67   485.28   490.33   492.59
                              567.67   617.62   687.41   697.94   702.96
                              745.77   765.43   766.99   866.20   909.11
                              957.67  1026.49  1060.08  1145.43  1209.61
                             1251.25  1345.20  1358.54  1385.70  1433.06
                             1487.89  1503.71  1565.16  1571.77  1584.42
                             1611.93  1627.64  1702.47  1789.42  1857.41
                             1954.35  1981.76  2003.27  2029.92  2052.19
                             2074.69  2076.87  2086.21  2103.48  2116.08
                             2133.97  2321.22  2341.25  3329.65  3335.34
                             3339.76  3364.88  4312.49  4334.24  4382.14
                             4446.17  4471.95  4481.95  4498.81  4523.53
                             4656.67  4660.19  4686.20

 Zero-point correction=                           0.206790 (Hartree/Particle)
 Thermal correction to Energy=                    0.231424
 Thermal correction to Enthalpy=                  0.232536
 Thermal correction to Gibbs Free Energy=         0.146175
 Sum of electronic and zero-point Energies=           -740.050869
 Sum of electronic and thermal Energies=              -740.026235
 Sum of electronic and thermal Enthalpies=            -740.025123
 Sum of electronic and thermal Free Energies=         -740.111485

                     E (Thermal)             CV                S
                      KCal/Mol        Cal/Mol-Kelvin    Cal/Mol-Kelvin
 Total                  145.221             72.556            154.351
 Electronic               0.000              0.000              0.000
 Translational            1.047              2.981             42.962
 Rotational               1.047              2.981             33.193
 Vibrational            143.128             66.595             78.196
 Vibration     1          0.699              1.984              5.972
 Vibration     2          0.700              1.980              5.089
 Vibration     3          0.700              1.979              5.009
 Vibration     4          0.702              1.975              4.567
 Vibration     5          0.703              1.972              4.388
 Vibration     6          0.704              1.969              4.174
 Vibration     7          0.708              1.958              3.716
 Vibration     8          0.711              1.948              3.437
 Vibration     9          0.715              1.939              3.213
 Vibration    10          0.716              1.937              3.182
 Vibration    11          0.716              1.936              3.156
 Vibration    12          0.719              1.927              3.001
 Vibration    13          0.725              1.912              2.786
 Vibration    14          0.728              1.904              2.682
 Vibration    15          0.740              1.869              2.349
 Vibration    16          0.762              1.812              1.966
 Vibration    17          0.783              1.757              1.705
 Vibration    18          0.805              1.699              1.495
 Vibration    19          0.808              1.693              1.477
 Vibration    20          0.809              1.691              1.470
 Vibration    21          0.843              1.606              1.236
 Vibration    22          0.869              1.545              1.103
 Vibration    23          0.908              1.458              0.942
 Vibration    24          0.914              1.444              0.920
 Vibration    25          0.917              1.438              0.909
 Vibration    26          0.942              1.383              0.826
 Vibration    27          0.954              1.357              0.790
 Vibration    28          0.955              1.355              0.788
 Vibration    29          1.020              1.225              0.631
 Vibration    30          1.050              1.169              0.573
 Vibration    31          1.085              1.106              0.513
 Vibration    32          1.136              1.019              0.440

 Optimization completed.
    -- Stationary point found.
 Normal termination of Gaussian 16 at Mon Mar  9 12:57:51 2020.
