 Gaussian 16, Revision C.01,
 Gaussian 16:  ES64L-G16RevC.01  3-Jul-2019

 ----------------------------------------------------------
 #p pbepbe/def2tzvp/w06 opt scrf(cpcm,solvent=generic,read)
 ----------------------------------------------------------

 ----
 bcn4
 ----
 Symbolic Z-matrix:
 Charge = -1 Multiplicity = 1

 SCF Done:  E(RPBE-PBE) =  -396.134771416     A.U. after   11 cycles
 SCF Done:  E(RPBE-PBE) =  -396.138991991     A.U. after    9 cycles
 SCF Done:  E(RPBE-PBE) =  -396.139007764     A.U. after    8 cycles
 SCF Done:  E(RPBE-PBE) =  -396.139004269     A.U. after    7 cycles
 Optimization completed.
    -- Stationary point found.

                         Standard orientation:
 ---------------------------------------------------------------------
 Center     Atomic      Atomic             Coordinates (Angstroms)
 Number     Number       Type             X           Y           Z
 ---------------------------------------------------------------------
      1          5           0       -0.000089    0.000101    0.000062
      2          6           0       -1.166389    0.912835    0.581672
      3          7           0       -2.020080    1.580205    1.006748
      4          6           0        0.828212    0.822706   -1.081113
      5          7           0        1.434292    1.424338   -1.872039
      6          6           0       -0.628402   -1.292041   -0.683580
      7          7           0       -1.088391   -2.236920   -1.184056
      8          6           0        0.966608   -0.443448    1.183475
      9          7           0        1.674217   -0.767740    2.048915
 ---------------------------------------------------------------------

 The electronic state is 1-A.
 Alpha  occ. eigenvalues --  -13.98727 -13.98727 -13.98726 -13.98725  -9.91666
 Alpha  occ. eigenvalues --   -9.91665  -9.91665  -9.91661  -6.55352  -0.83012
 Alpha  occ. eigenvalues --   -0.82412  -0.82412  -0.82411  -0.61683  -0.45957
 Alpha  occ. eigenvalues --   -0.45955  -0.45952  -0.33335  -0.33334  -0.33334
 Alpha  occ. eigenvalues --   -0.33115  -0.32480  -0.32479  -0.30290  -0.30289
 Alpha  occ. eigenvalues --   -0.30289  -0.29957  -0.29956  -0.29954
 Alpha virt. eigenvalues --   -0.04641  -0.04636  -0.04633  -0.03684  -0.03682
 Alpha virt. eigenvalues --    0.00935   0.03984   0.03985   0.03986   0.07115
 Alpha virt. eigenvalues --    0.07116   0.07117   0.15657   0.15659   0.15661

 Mulliken charges:
               1
     1  B    0.261295
     2  C   -0.252522
     3  N   -0.062909
     4  C   -0.252207
     5  N   -0.063000
     6  C   -0.252339
     7  N   -0.062948
     8  C   -0.252400
     9  N   -0.062969
 Sum of Mulliken charges =  -1.00000

 Dipole moment (field-independent basis, Debye):
    X=             -0.0006    Y=              0.0012    Z=              0.0010  Tot=              0.0017
 Quadrupole moment (field-independent basis, Debye-Ang):
   XX=            -71.0318   YY=            -71.0163   ZZ=            -71.0153
   XY=              0.0000   XZ=             -0.0008   YZ=              0.0004

 Normal termination of Gaussian 16 at Tue Mar 10 15:50:19 2020.
