 Gaussian 16, Revision C.01,
 Gaussian 16:  ES64L-G16RevC.01  3-Jul-2019

 --------
 #CBS-QB3
 --------

 -
 s
 -
 Symbolic Z-matrix:
 Charge =  0 Multiplicity = 3

 SCF Done:  E(UB3LYP) =  -398.132264320     A.U. after   10 cycles
 Optimization completed.
    -- Stationary point found.
 Normal termination of Gaussian 16 at Tue Mar  3 14:53:14 2020.

 --------------------------------------------------------------
 #N Geom=AllCheck Guess=TCheck SCRF=Check Test B3LYP/CBSB7 Freq
 --------------------------------------------------------------

 Structure from the checkpoint file:  "s.chk"
 -
 s
 -
 Charge =  0 Multiplicity = 3

 SCF Done:  E(UB3LYP) =  -398.132264320     A.U. after    1 cycles

  Exact polarizability:      10.855      -0.000      11.216      -0.000       0.000      10.855
 Approx polarizability:      16.558      -0.000      14.615      -0.000      -0.000      16.558

 - Thermochemistry -
 -------------------
 Temperature   298.150 Kelvin.  Pressure   1.00000 Atm.
 Atom     1 has atomic number 16 and mass  31.97207
 Molecular mass:    31.97207 amu.
 Zero-point vibrational energy          0.0 (Joules/Mol)
                                    0.00000 (Kcal/Mol)
 Vibrational temperatures:
          (Kelvin)

 Zero-point correction=                           0.000000 (Hartree/Particle)
 Thermal correction to Energy=                    0.001416
 Thermal correction to Enthalpy=                  0.002360
 Thermal correction to Gibbs Free Energy=        -0.015933
 Sum of electronic and zero-point Energies=           -398.132264
 Sum of electronic and thermal Energies=              -398.130848
 Sum of electronic and thermal Enthalpies=            -398.129904
 Sum of electronic and thermal Free Energies=         -398.148197

                     E (Thermal)             CV                S
                      KCal/Mol        Cal/Mol-Kelvin    Cal/Mol-Kelvin
 Total                    0.889              2.981             38.502
 Electronic               0.000              0.000              2.183
 Translational            0.889              2.981             36.319
 Rotational               0.000              0.000              0.000
 Vibrational              0.000              0.000              0.000

 Optimization completed.
    -- Stationary point found.
 Normal termination of Gaussian 16 at Tue Mar  3 14:53:16 2020.

 ----------------------------------------------------------------
 #N Geom=AllCheck Guess=TCheck SCRF=Check Test CCSD(T)/6-31+G(d')
 ----------------------------------------------------------------

 Structure from the checkpoint file:  "s.chk"
 -
 s
 -
 Charge =  0 Multiplicity = 3

 SCF Done:  E(UHF) =  -397.476687944     A.U. after   10 cycles
 E2 =    -0.7817687999D-01 EUMP2 =    -0.39755486482426D+03
 CCSD(T)= -0.39757394490D+03
 SD=-397.5725557\CCSD(T)=-397.5739449\S2=2.00631\S2-1=2.000153\S2A=2.00
 Normal termination of Gaussian 16 at Tue Mar  3 14:53:18 2020.

 ----------------------------------------------------------
 #N Geom=AllCheck Guess=TCheck SCRF=Check Test MP4SDQ/CBSB4
 ----------------------------------------------------------

 Structure from the checkpoint file:  "s.chk"
 -
 s
 -
 Charge =  0 Multiplicity = 3

 SCF Done:  E(UHF) =  -397.478523048     A.U. after    9 cycles
 E2 =    -0.9557332788D-01 EUMP2 =    -0.39757409637588D+03
 Normal termination of Gaussian 16 at Tue Mar  3 14:53:20 2020.

 ----------------------------------------------------------------------
 #N Geom=AllCheck Guess=TCheck SCRF=Check Test MP2/CBSB3 CBSExtrap=(NMi
 n=10,MinPop)
 ----------------------------------------------------------------------

 Structure from the checkpoint file:  "s.chk"
 -
 s
 -
 Charge =  0 Multiplicity = 3

                         Standard orientation:
 ---------------------------------------------------------------------
 Center     Atomic      Atomic             Coordinates (Angstroms)
 Number     Number       Type             X           Y           Z
 ---------------------------------------------------------------------
      1         16           0        0.000000    0.000000    0.000000
 ---------------------------------------------------------------------

 SCF Done:  E(UHF) =  -397.503090366     A.U. after   10 cycles
 E2 =    -0.1162066611D+00 EUMP2 =    -0.39761929702752D+03
 E2(CBS)=      -0.133299 CBS-Int=       0.006713 OIii=       1.059944

 Unable to determine electronic state:  an orbital has unidentified symmetry.
 Alpha  occ. eigenvalues --  -92.01314  -9.01282  -6.70635  -6.70635  -6.68591
 Alpha  occ. eigenvalues --   -0.98984  -0.48703  -0.48703  -0.41595
 Alpha virt. eigenvalues --    0.08480   0.09283   0.09283   0.10023   0.31862
 Alpha virt. eigenvalues --    0.31862   0.34839   0.34839   0.35980   0.41301
 Alpha virt. eigenvalues --    0.41301   0.43936   0.71899   1.01201   1.01201

  Beta  occ. eigenvalues --  -91.99389  -8.99427  -6.67579  -6.65975  -6.65975
  Beta  occ. eigenvalues --   -0.77382  -0.37921
  Beta virt. eigenvalues --    0.00185   0.00185   0.09441   0.10165   0.11552
  Beta virt. eigenvalues --    0.11552   0.39494   0.39966   0.39966   0.41803
  Beta virt. eigenvalues --    0.41803   0.44795   0.47536   0.47536   0.76407

 Mulliken charges and spin densities:
               1          2
     1  S   -0.000000   2.000000
 Sum of Mulliken charges =  -0.00000   2.00000

 Dipole moment (field-independent basis, Debye):
    X=              0.0000    Y=              0.0000    Z=              0.0000  Tot=              0.0000
 Quadrupole moment (field-independent basis, Debye-Ang):
   XX=            -12.1543   YY=            -15.1011   ZZ=            -12.1543
   XY=              0.0000   XZ=             -0.0000   YZ=             -0.0000

 1\1\GINC-ASTERIX\Mixed\CBS-QB3\CBS-QB3\S1(3)\MTMJEA001\03-Mar-2020\0\\
 #CBS-QB3\\s\\0,3\S,0.,0.,0.\\Version=ES64L-G16RevC.01\HF/CbsB3=-397.50
 30904\E2(CBS)/CbsB3=-0.1332986\CBS-Int/CbsB3=0.0067127\OIii/CbsB3=1.05
 99442\MP2/CbsB4=-397.5740964\MP4(SDQ)/CbsB4=-397.5936921\MP4(SDQ)/6-31
 +G(d')=-397.5721255\QCISD(T)/6-31+G(d')=-397.5739449\CBSQB3=-397.65735
 34\FreqCoord=0.,0.,0.\PG=OH [O(S1)]\NImag=0\\0.,0.,0.,0.,0.,0.\\0.,0.,
 0.\\\@
 Job cpu time:       0 days  0 hours  0 minutes 19.0 seconds.

 Normal termination of Gaussian 16 at Tue Mar  3 14:53:22 2020.
