 Gaussian 16, Revision C.01,
 Gaussian 16:  ES64L-G16RevC.01  3-Jul-2019

 --------
 #CBS-QB3
 --------

 ------------
 hydrogen.xyz
 ------------
 Symbolic Z-matrix:
 Charge =  0 Multiplicity = 2

 SCF Done:  E(UB3LYP) = -0.502155930090     A.U. after    6 cycles
 SCF Done:  E(UB3LYP) = -0.502155930090     A.U. after    1 cycles
 Optimization completed.
    -- Stationary point found.
 Normal termination of Gaussian 16 at Tue Mar  3 14:57:11 2020.

 --------------------------------------------------------------
 #N Geom=AllCheck Guess=TCheck SCRF=Check Test B3LYP/CBSB7 Freq
 --------------------------------------------------------------

 Structure from the checkpoint file:  "hydrogen.chk"
 ------------
 hydrogen.xyz
 ------------
 Charge =  0 Multiplicity = 2

 SCF Done:  E(UB3LYP) = -0.502155930090     A.U. after    1 cycles

  Exact polarizability:       0.591       0.000       0.591       0.000       0.000       0.591
 Approx polarizability:       0.536      -0.000       0.536      -0.000      -0.000       0.536

 - Thermochemistry -
 -------------------
 Temperature   298.150 Kelvin.  Pressure   1.00000 Atm.
 Atom     1 has atomic number  1 and mass   1.00783
 Molecular mass:     1.00783 amu.
 Zero-point vibrational energy          0.0 (Joules/Mol)
                                    0.00000 (Kcal/Mol)
 Vibrational temperatures:
          (Kelvin)

 Zero-point correction=                           0.000000 (Hartree/Particle)
 Thermal correction to Energy=                    0.001416
 Thermal correction to Enthalpy=                  0.002360
 Thermal correction to Gibbs Free Energy=        -0.010654
 Sum of electronic and zero-point Energies=             -0.502156
 Sum of electronic and thermal Energies=                -0.500740
 Sum of electronic and thermal Enthalpies=              -0.499795
 Sum of electronic and thermal Free Energies=           -0.512810

                     E (Thermal)             CV                S
                      KCal/Mol        Cal/Mol-Kelvin    Cal/Mol-Kelvin
 Total                    0.889              2.981             27.392
 Electronic               0.000              0.000              1.377
 Translational            0.889              2.981             26.014
 Rotational               0.000              0.000              0.000
 Vibrational              0.000              0.000              0.000

 Optimization completed.
    -- Stationary point found.
 Normal termination of Gaussian 16 at Tue Mar  3 14:57:13 2020.

 ----------------------------------------------------------------
 #N Geom=AllCheck Guess=TCheck SCRF=Check Test CCSD(T)/6-31+G(d')
 ----------------------------------------------------------------

 Structure from the checkpoint file:  "hydrogen.chk"
 ------------
 hydrogen.xyz
 ------------
 Charge =  0 Multiplicity = 2

 SCF Done:  E(UHF) = -0.498232909202     A.U. after    4 cycles
 E2 =     0.0000000000D+00 EUMP2 =    -0.49823290920158D+00
 CCSD(T)= -0.49823290920D+00
 DQ=-0.4982329\MP4SDQ=-0.4982329\CCSD=-0.4982329\CCSD(T)=-0.4982329\S2=
 Normal termination of Gaussian 16 at Tue Mar  3 14:57:14 2020.

 ----------------------------------------------------------
 #N Geom=AllCheck Guess=TCheck SCRF=Check Test MP4SDQ/CBSB4
 ----------------------------------------------------------

 Structure from the checkpoint file:  "hydrogen.chk"
 ------------
 hydrogen.xyz
 ------------
 Charge =  0 Multiplicity = 2

 SCF Done:  E(UHF) = -0.498232909202     A.U. after    1 cycles
 E2 =     0.0000000000D+00 EUMP2 =    -0.49823290920158D+00
 Normal termination of Gaussian 16 at Tue Mar  3 14:57:15 2020.

 ----------------------------------------------------------------------
 #N Geom=AllCheck Guess=TCheck SCRF=Check Test MP2/CBSB3 CBSExtrap=(NMi
 n=10,MinPop)
 ----------------------------------------------------------------------

 Structure from the checkpoint file:  "hydrogen.chk"
 ------------
 hydrogen.xyz
 ------------
 Charge =  0 Multiplicity = 2

                         Standard orientation:
 ---------------------------------------------------------------------
 Center     Atomic      Atomic             Coordinates (Angstroms)
 Number     Number       Type             X           Y           Z
 ---------------------------------------------------------------------
      1          1           0        0.000000    0.000000    0.000000
 ---------------------------------------------------------------------

 SCF Done:  E(UHF) = -0.499817915630     A.U. after    6 cycles
 E2 =     0.0000000000D+00 EUMP2 =    -0.49981791563042D+00

 The electronic state is 2-A1G.
 Alpha  occ. eigenvalues --   -0.49982
 Alpha virt. eigenvalues --    0.07918   0.49585   0.71711   0.71711   0.71711
 Alpha virt. eigenvalues --    2.61805   3.98096   3.98096   3.98096
  Beta virt. eigenvalues --    0.02078   0.14916   0.61470   0.81445   0.81445

 Mulliken charges and spin densities:
               1          2
     1  H   -0.000000   1.000000
 Sum of Mulliken charges =  -0.00000   1.00000

 Dipole moment (field-independent basis, Debye):
    X=              0.0000    Y=              0.0000    Z=              0.0000  Tot=              0.0000
 Quadrupole moment (field-independent basis, Debye-Ang):
   XX=             -1.3479   YY=             -1.3479   ZZ=             -1.3479
   XY=              0.0000   XZ=              0.0000   YZ=              0.0000

 1\1\GINC-ASTERIX\Mixed\CBS-QB3\CBS-QB3\H1(2)\MTMJEA001\03-Mar-2020\0\\
 #CBS-QB3\\hydrogen.xyz\\0,2\H,-6.66519,1.96727,0.\\Version=ES64L-G16Re
 vC.01\State=2-A1G\HF/CbsB3=-0.4998179\E2(CBS)/CbsB3=0.\CBS-Int/CbsB3=0
 .\OIii/CbsB3=0.\MP2/CbsB4=-0.4982329\MP4(SDQ)/CbsB4=-0.4982329\MP4(SDQ
 )/6-31+G(d')=-0.4982329\QCISD(T)/6-31+G(d')=-0.4982329\CBSQB3=-0.49981
 79\FreqCoord=-12.5953836682,3.7176015131,0.\PG=OH [O(H1)]\NImag=0\\0.,
 0.,0.,0.,0.,0.\\0.,0.,0.\\\@
 Job cpu time:       0 days  0 hours  0 minutes  8.2 seconds.

 Normal termination of Gaussian 16 at Tue Mar  3 14:57:16 2020.
