 Gaussian 16, Revision C.01,
 Gaussian 16:  ES64L-G16RevC.01  3-Jul-2019

 ----------------------------------------------------------
 #p pbepbe/def2tzvp/w06 opt scrf(cpcm,solvent=generic,read)
 ----------------------------------------------------------

 ---
 tos
 ---
 Symbolic Z-matrix:
 Charge = -1 Multiplicity = 1

 SCF Done:  E(RPBE-PBE) =  -894.460910977     A.U. after   13 cycles
 SCF Done:  E(RPBE-PBE) =  -894.463595515     A.U. after   11 cycles
 SCF Done:  E(RPBE-PBE) =  -894.465888949     A.U. after   11 cycles
 SCF Done:  E(RPBE-PBE) =  -894.466038817     A.U. after   10 cycles
 SCF Done:  E(RPBE-PBE) =  -894.466054815     A.U. after    9 cycles
 SCF Done:  E(RPBE-PBE) =  -894.466056306     A.U. after    8 cycles
 SCF Done:  E(RPBE-PBE) =  -894.466056704     A.U. after    8 cycles
 SCF Done:  E(RPBE-PBE) =  -894.466056885     A.U. after    7 cycles
 SCF Done:  E(RPBE-PBE) =  -894.466057181     A.U. after    8 cycles
 SCF Done:  E(RPBE-PBE) =  -894.466057558     A.U. after    8 cycles
 SCF Done:  E(RPBE-PBE) =  -894.465946819     A.U. after   11 cycles
 SCF Done:  E(RPBE-PBE) =  -894.466078598     A.U. after   10 cycles
 SCF Done:  E(RPBE-PBE) =  -894.466083032     A.U. after    9 cycles
 SCF Done:  E(RPBE-PBE) =  -894.466085013     A.U. after    8 cycles
 SCF Done:  E(RPBE-PBE) =  -894.466085285     A.U. after    8 cycles
 SCF Done:  E(RPBE-PBE) =  -894.466085814     A.U. after    8 cycles
 SCF Done:  E(RPBE-PBE) =  -894.466086262     A.U. after    8 cycles
 SCF Done:  E(RPBE-PBE) =  -894.466086350     A.U. after    7 cycles
 SCF Done:  E(RPBE-PBE) =  -894.466086432     A.U. after    7 cycles
 SCF Done:  E(RPBE-PBE) =  -894.466086428     A.U. after    7 cycles
 Optimization completed.
    -- Stationary point found.

                         Standard orientation:
 ---------------------------------------------------------------------
 Center     Atomic      Atomic             Coordinates (Angstroms)
 Number     Number       Type             X           Y           Z
 ---------------------------------------------------------------------
      1          6           0       -4.164153    0.005203    0.009192
      2          6           0       -2.658260   -0.003050    0.009403
      3          6           0       -1.931236    1.199905   -0.001172
      4          6           0       -0.537126    1.202395   -0.022919
      5          6           0        0.167433   -0.008291   -0.033593
      6          6           0       -0.539338   -1.213526   -0.022693
      7          6           0       -1.936995   -1.205457   -0.001121
      8         16           0        1.968884   -0.000027    0.002109
      9          8           0        2.320459    0.208536    1.427196
     10          8           0        2.389400   -1.322045   -0.512478
     11          8           0        2.379111    1.127651   -0.864424
     12          1           0       -4.560941    0.732876    0.731969
     13          1           0       -4.570341   -0.984689    0.255957
     14          1           0       -4.557209    0.289781   -0.979931
     15          1           0       -2.468911    2.151590    0.005751
     16          1           0        0.011087    2.145781   -0.040282
     17          1           0        0.009070   -2.156388   -0.038102
     18          1           0       -2.478614   -2.154740    0.005967
 ---------------------------------------------------------------------

 The electronic state is 1-A.
 Alpha  occ. eigenvalues --  -88.19394 -18.70603 -18.70568 -18.70499  -9.90242
 Alpha  occ. eigenvalues --   -9.90163  -9.89273  -9.89182  -9.88912  -9.88897
 Alpha  occ. eigenvalues --   -9.88024  -7.78744  -5.80817  -5.80749  -5.80748
 Alpha  occ. eigenvalues --   -0.99804  -0.86963  -0.86764  -0.78572  -0.70768
 Alpha  occ. eigenvalues --   -0.67816  -0.62886  -0.55076  -0.55015  -0.50475
 Alpha  occ. eigenvalues --   -0.45044  -0.42165  -0.40758  -0.38951  -0.38681
 Alpha  occ. eigenvalues --   -0.38089  -0.37608  -0.37399  -0.34012  -0.32785
 Alpha  occ. eigenvalues --   -0.32037  -0.29848  -0.27888  -0.27832  -0.25626
 Alpha  occ. eigenvalues --   -0.24245  -0.24127  -0.23489  -0.21293  -0.20069
 Alpha virt. eigenvalues --   -0.05148  -0.04774   0.02948   0.04463   0.06102
 Alpha virt. eigenvalues --    0.06713   0.07646   0.09075   0.09863   0.10227
 Alpha virt. eigenvalues --    0.11069   0.11592   0.12394   0.13549   0.14086

 Mulliken charges:
               1
     1  C   -0.381477
     2  C    0.186229
     3  C   -0.214562
     4  C   -0.196942
     5  C    0.090956
     6  C   -0.184999
     7  C   -0.213334
     8  S    0.640737
     9  O   -0.531337
    10  O   -0.530645
    11  O   -0.530977
    12  H    0.133979
    13  H    0.133087
    14  H    0.134843
    15  H    0.115078
    16  H    0.116038
    17  H    0.117632
    18  H    0.115695
 Sum of Mulliken charges =  -1.00000

 Dipole moment (field-independent basis, Debye):
    X=            -14.1324    Y=             -0.0009    Z=             -0.1954  Tot=             14.1337
 Quadrupole moment (field-independent basis, Debye-Ang):
   XX=            -97.6833   YY=            -75.3832   ZZ=            -83.4149
   XY=             -0.2577   XZ=             -0.0989   YZ=             -0.0112

 Normal termination of Gaussian 16 at Tue Mar 10 15:18:17 2020.
